# y+ ()         
# Time          	patch           	min             	max             	average         
20              	Floor	1.68312544e+00	6.93361958e+01	1.79286229e+01
20              	Airfoil	1.99561138e+00	1.53388318e+01	6.00292587e+00
