# y+ ()         
# Time          	patch           	min             	max             	average         
3800            	Floor	5.02687737e-01	1.23829075e+01	9.78790829e+00
3800            	Airfoil	5.03920087e-02	2.43449701e+00	6.68676965e-01
