# y+ ()         
# Time          	patch           	min             	max             	average         
600             	Floor	9.67466015e-01	4.59912083e+01	2.56817322e+01
600             	Airfoil	9.80624460e+00	6.23858391e+01	2.48568718e+01
