Block Name,Point ID,vtkOriginalPointIds,alphat,div(phi),k,Ma,momentErrorMap_0,momentErrorMap_1,momentErrorMap_2,momentErrorMap_Magnitude,nut,omega,p,Points_0,Points_1,Points_2,Points_Magnitude,rho,T,U_0,U_1,U_2,U_Magnitude,yPlus
Airfoil,0,0,1.15887e-11,-2.55436e-06,4.20861e-07,0,0,0,0,0,9.85745e-12,18382.7,1.00029,0.0346307,0.0329293,0,0.0477873,0.999439,1.00078,0,0,0,0,0.690875
Airfoil,1,1,1.15887e-11,-2.55436e-06,4.20861e-07,0,0,0,0,0,9.85745e-12,18382.7,1.00029,0.0346307,0.0329293,1,1.00114,0.999439,1.00078,0,0,0,0,0.690875
Airfoil,2,2,1.01038e-11,-4.7112e-07,3.54615e-07,0,0,0,0,0,8.59566e-12,17106.5,1.00012,0.0250899,0.0312981,1,1.0008,0.999293,1.00076,0,0,0,0,0.644001
Airfoil,3,3,1.01038e-11,-4.7112e-07,3.54615e-07,0,0,0,0,0,8.59566e-12,17106.5,1.00012,0.0250899,0.0312981,0,0.0401133,0.999293,1.00076,0,0,0,0,0.644001
Airfoil,4,4,1.00608e-11,3.50242e-07,3.68313e-07,0,0,0,0,0,8.55298e-12,18847.5,1.00071,0.0441886,0.0344597,0,0.0560366,0.999851,1.0008,0,0,0,0,0.664533
Airfoil,5,5,1.00608e-11,3.50242e-07,3.68313e-07,0,0,0,0,0,8.55298e-12,18847.5,1.00071,0.0441886,0.0344597,1,1.00157,0.999851,1.0008,0,0,0,0,0.664533
Airfoil,6,6,1.38284e-11,2.04062e-07,5.56179e-07,0,0,0,0,0,1.17562e-11,19222.2,1.00066,0.0537591,0.0359076,0,0.0646482,0.99982,1.00077,0,0,0,0,0.742681
Airfoil,7,7,1.38284e-11,2.04062e-07,5.56179e-07,0,0,0,0,0,1.17562e-11,19222.2,1.00066,0.0537591,0.0359076,1,1.00209,0.99982,1.00077,0,0,0,0,0.742681
Airfoil,8,8,1.46299e-11,-1.6374e-07,6.10407e-07,0,0,0,0,0,1.24387e-11,19710.8,1.00055,0.0633348,0.0373213,0,0.0735132,0.999735,1.00075,0,0,0,0,0.756983
Airfoil,9,9,1.46299e-11,-1.6374e-07,6.10407e-07,0,0,0,0,0,1.24387e-11,19710.8,1.00055,0.0633348,0.0373213,1,1.0027,0.999735,1.00075,0,0,0,0,0.756983
Airfoil,10,10,1.39202e-11,-3.05413e-07,5.86377e-07,0,0,0,0,0,1.18361e-11,20198.1,1.00047,0.0729327,0.0385739,0,0.0825053,0.999671,1.00074,0,0,0,0,0.74477
Airfoil,11,11,1.39202e-11,-3.05413e-07,5.86377e-07,0,0,0,0,0,1.18361e-11,20198.1,1.00047,0.0729327,0.0385739,1,1.0034,0.999671,1.00074,0,0,0,0,0.74477
Airfoil,12,12,1.33429e-11,-1.85369e-07,5.66306e-07,0,0,0,0,0,1.13457e-11,20623,1.00041,0.082536,0.0397862,0,0.091625,0.999624,1.00072,0,0,0,0,0.734594
Airfoil,13,13,1.33429e-11,-1.85369e-07,5.66306e-07,0,0,0,0,0,1.13457e-11,20623,1.00041,0.082536,0.0397862,1,1.00419,0.999624,1.00072,0,0,0,0,0.734594
Airfoil,14,14,1.24178e-11,-1.1927e-07,5.29084e-07,0,0,0,0,0,1.05599e-11,21145.5,1.00032,0.0921536,0.0408757,0,0.100812,0.99955,1.00071,0,0,0,0,0.717286
Airfoil,15,15,1.24178e-11,-1.1927e-07,5.29084e-07,0,0,0,0,0,1.05599e-11,21145.5,1.00032,0.0921536,0.0408757,1,1.00507,0.99955,1.00071,0,0,0,0,0.717286
Airfoil,16,16,1.1422e-11,-1.98304e-07,4.84255e-07,0,0,0,0,0,9.7132e-12,21539.7,1.00029,0.101783,0.0418558,0,0.110053,0.999535,1.0007,0,0,0,0,0.698196
Airfoil,17,17,1.1422e-11,-1.98304e-07,4.84255e-07,0,0,0,0,0,9.7132e-12,21539.7,1.00029,0.101783,0.0418558,1,1.00604,0.999535,1.0007,0,0,0,0,0.698196
Airfoil,18,18,1.12649e-11,-3.75972e-07,4.81801e-07,0,0,0,0,0,9.57988e-12,21835.1,1.00026,0.111418,0.0427861,0,0.119351,0.999511,1.00069,0,0,0,0,0.695078
Airfoil,19,19,1.12649e-11,-3.75972e-07,4.81801e-07,0,0,0,0,0,9.57988e-12,21835.1,1.00026,0.111418,0.0427861,1,1.0071,0.999511,1.00069,0,0,0,0,0.695078
Airfoil,20,20,1.09229e-11,-4.75209e-07,4.70929e-07,0,0,0,0,0,9.28953e-12,22239.1,1.00018,0.121058,0.0436624,0,0.128691,0.999451,1.00068,0,0,0,0,0.68799
Airfoil,21,21,1.09229e-11,-4.75209e-07,4.70929e-07,0,0,0,0,0,9.28953e-12,22239.1,1.00018,0.121058,0.0436624,1,1.00825,0.999451,1.00068,0,0,0,0,0.68799
Airfoil,22,22,9.99982e-12,-5.64481e-07,4.28426e-07,0,0,0,0,0,8.50475e-12,22651.7,1.00015,0.130708,0.0444156,0,0.138048,0.999424,1.00067,0,0,0,0,0.668352
Airfoil,23,23,9.99982e-12,-5.64481e-07,4.28426e-07,0,0,0,0,0,8.50475e-12,22651.7,1.00015,0.130708,0.0444156,1,1.00948,0.999424,1.00067,0,0,0,0,0.668352
Airfoil,24,24,9.46522e-12,-6.45312e-07,4.04097e-07,0,0,0,0,0,8.05001e-12,22936.6,1.00015,0.140363,0.0450988,0,0.147431,0.999432,1.00067,0,0,0,0,0.656613
Airfoil,25,25,9.46522e-12,-6.45312e-07,4.04097e-07,0,0,0,0,0,8.05001e-12,22936.6,1.00015,0.140363,0.0450988,1,1.01081,0.999432,1.00067,0,0,0,0,0.656613
Airfoil,26,26,9.06124e-12,-1.1301e-06,3.87025e-07,0,0,0,0,0,7.70659e-12,23258.1,1.00013,0.150023,0.0457262,0,0.156836,0.99941,1.00066,0,0,0,0,0.647198
Airfoil,27,27,9.06124e-12,-1.1301e-06,3.87025e-07,0,0,0,0,0,7.70659e-12,23258.1,1.00013,0.150023,0.0457262,1,1.01222,0.99941,1.00066,0,0,0,0,0.647198
Airfoil,28,28,8.36006e-12,-4.31561e-07,3.53492e-07,0,0,0,0,0,7.11023e-12,23554.4,1.00013,0.159688,0.0462525,0,0.166251,0.999414,1.00066,0,0,0,0,0.630339
Airfoil,29,29,8.36006e-12,-4.31561e-07,3.53492e-07,0,0,0,0,0,7.11023e-12,23554.4,1.00013,0.159688,0.0462525,1,1.01373,0.999414,1.00066,0,0,0,0,0.630339
Airfoil,30,30,7.86373e-12,-1.60257e-07,3.29334e-07,0,0,0,0,0,6.68792e-12,23748.6,1.00015,0.169356,0.0467268,0,0.175684,0.999439,1.00067,0,0,0,0,0.617921
Airfoil,31,31,7.86373e-12,-1.60257e-07,3.29334e-07,0,0,0,0,0,6.68792e-12,23748.6,1.00015,0.169356,0.0467268,1,1.01532,0.999439,1.00067,0,0,0,0,0.617921
Airfoil,32,32,7.53884e-12,-8.49774e-07,3.13724e-07,0,0,0,0,0,6.41152e-12,23895.1,1.00017,0.179026,0.0471505,0,0.185131,0.999454,1.00067,0,0,0,0,0.609423
Airfoil,33,33,7.53884e-12,-8.49774e-07,3.13724e-07,0,0,0,0,0,6.41152e-12,23895.1,1.00017,0.179026,0.0471505,1,1.01699,0.999454,1.00067,0,0,0,0,0.609423
Airfoil,34,34,7.33234e-12,-1.16158e-06,3.03405e-07,0,0,0,0,0,6.23575e-12,23963.5,1.0002,0.188698,0.0475427,0,0.194595,0.999477,1.00067,0,0,0,0,0.603936
Airfoil,35,35,7.33234e-12,-1.16158e-06,3.03405e-07,0,0,0,0,0,6.23575e-12,23963.5,1.0002,0.188698,0.0475427,1,1.01876,0.999477,1.00067,0,0,0,0,0.603936
Airfoil,36,36,7.29671e-12,-1.24084e-06,3.01633e-07,0,0,0,0,0,6.20538e-12,23998.3,1.00021,0.19837,0.0479257,0,0.204077,0.999489,1.00067,0,0,0,0,0.602973
Airfoil,37,37,7.29671e-12,-1.24084e-06,3.01633e-07,0,0,0,0,0,6.20538e-12,23998.3,1.00021,0.19837,0.0479257,1,1.02061,0.999489,1.00067,0,0,0,0,0.602973
Airfoil,38,38,7.22844e-12,-4.65477e-07,2.98221e-07,0,0,0,0,0,6.1473e-12,24035.7,1.00021,0.208042,0.0482946,0,0.213574,0.999492,1.00067,0,0,0,0,0.601113
Airfoil,39,39,7.22844e-12,-4.65477e-07,2.98221e-07,0,0,0,0,0,6.1473e-12,24035.7,1.00021,0.208042,0.0482946,1,1.02255,0.999492,1.00067,0,0,0,0,0.601113
Airfoil,40,40,7.13918e-12,-1.04669e-06,2.93558e-07,0,0,0,0,0,6.07134e-12,24056.2,1.00022,0.217715,0.0486498,0,0.223084,0.999499,1.00067,0,0,0,0,0.598674
Airfoil,41,41,7.13918e-12,-1.04669e-06,2.93558e-07,0,0,0,0,0,6.07134e-12,24056.2,1.00022,0.217715,0.0486498,1,1.02458,0.999499,1.00067,0,0,0,0,0.598674
Airfoil,42,42,7.08739e-12,-7.98e-07,2.90748e-07,0,0,0,0,0,6.02728e-12,24065.7,1.00022,0.227388,0.0489992,0,0.232608,0.999503,1.00067,0,0,0,0,0.597247
Airfoil,43,43,7.08739e-12,-7.98e-07,2.90748e-07,0,0,0,0,0,6.02728e-12,24065.7,1.00022,0.227388,0.0489992,1,1.0267,0.999503,1.00067,0,0,0,0,0.597247
Airfoil,44,44,7.04891e-12,-7.84312e-07,2.88549e-07,0,0,0,0,0,5.99455e-12,24064.3,1.00022,0.237062,0.0493402,0,0.242142,0.999504,1.00067,0,0,0,0,0.596182
Airfoil,45,45,7.04891e-12,-7.84312e-07,2.88549e-07,0,0,0,0,0,5.99455e-12,24064.3,1.00022,0.237062,0.0493402,1,1.0289,0.999504,1.00067,0,0,0,0,0.596182
Airfoil,46,46,7.0696e-12,-7.20362e-07,2.8929e-07,0,0,0,0,0,6.01214e-12,24048.5,1.00022,0.246736,0.0496817,0,0.251688,0.999504,1.00067,0,0,0,0,0.596754
Airfoil,47,47,7.0696e-12,-7.20362e-07,2.8929e-07,0,0,0,0,0,6.01214e-12,24048.5,1.00022,0.246736,0.0496817,1,1.03119,0.999504,1.00067,0,0,0,0,0.596754
Airfoil,48,48,7.12095e-12,-8.77625e-07,2.91692e-07,0,0,0,0,0,6.05586e-12,24036.4,1.00021,0.256409,0.0500247,0,0.261243,0.999496,1.00067,0,0,0,0,0.598173
Airfoil,49,49,7.12095e-12,-8.77625e-07,2.91692e-07,0,0,0,0,0,6.05586e-12,24036.4,1.00021,0.256409,0.0500247,1,1.03356,0.999496,1.00067,0,0,0,0,0.598173
Airfoil,50,50,7.1742e-12,-4.34182e-07,2.94273e-07,0,0,0,0,0,6.1012e-12,24028.9,1.0002,0.266083,0.0503655,0,0.270807,0.999487,1.00066,0,0,0,0,0.599635
Airfoil,51,51,7.1742e-12,-4.34182e-07,2.94273e-07,0,0,0,0,0,6.1012e-12,24028.9,1.0002,0.266083,0.0503655,1,1.03602,0.999487,1.00066,0,0,0,0,0.599635
Airfoil,52,52,7.19657e-12,-5.3447e-07,2.95427e-07,0,0,0,0,0,6.12031e-12,24035,1.00018,0.275756,0.0507041,0,0.280379,0.999472,1.00066,0,0,0,0,0.60025
Airfoil,53,53,7.19657e-12,-5.3447e-07,2.95427e-07,0,0,0,0,0,6.12031e-12,24035,1.00018,0.275756,0.0507041,1,1.03856,0.999472,1.00066,0,0,0,0,0.60025
Airfoil,54,54,7.20191e-12,-1.38096e-06,2.95744e-07,0,0,0,0,0,6.12493e-12,24044.9,1.00016,0.28543,0.0510279,0,0.289956,0.99946,1.00066,0,0,0,0,0.600396
Airfoil,55,55,7.20191e-12,-1.38096e-06,2.95744e-07,0,0,0,0,0,6.12493e-12,24044.9,1.00016,0.28543,0.0510279,1,1.04119,0.99946,1.00066,0,0,0,0,0.600396
Airfoil,56,56,7.15393e-12,-2.07008e-07,2.93445e-07,0,0,0,0,0,6.08422e-12,24068.1,1.00014,0.295105,0.0513434,0,0.299538,0.999444,1.00065,0,0,0,0,0.599077
Airfoil,57,57,7.15393e-12,-2.07008e-07,2.93445e-07,0,0,0,0,0,6.08422e-12,24068.1,1.00014,0.295105,0.0513434,1,1.0439,0.999444,1.00065,0,0,0,0,0.599077
Airfoil,58,58,7.06934e-12,-2.27848e-07,2.89179e-07,0,0,0,0,0,6.01233e-12,24085.7,1.00013,0.30478,0.0516274,0,0.309122,0.999437,1.00065,0,0,0,0,0.596752
Airfoil,59,59,7.06934e-12,-2.27848e-07,2.89179e-07,0,0,0,0,0,6.01233e-12,24085.7,1.00013,0.30478,0.0516274,1,1.04669,0.999437,1.00065,0,0,0,0,0.596752
Airfoil,60,60,6.98082e-12,-2.65842e-07,2.84696e-07,0,0,0,0,0,5.9371e-12,24101.7,1.00012,0.314456,0.0519025,0,0.318711,0.999427,1.00064,0,0,0,0,0.594286
Airfoil,61,61,6.98082e-12,-2.65842e-07,2.84696e-07,0,0,0,0,0,5.9371e-12,24101.7,1.00012,0.314456,0.0519025,1,1.04956,0.999427,1.00064,0,0,0,0,0.594286
Airfoil,62,62,6.88375e-12,-2.99964e-07,2.79659e-07,0,0,0,0,0,5.85456e-12,24106.7,1.00011,0.324133,0.0521392,0,0.328299,0.999424,1.00064,0,0,0,0,0.59157
Airfoil,63,63,6.88375e-12,-2.99964e-07,2.79659e-07,0,0,0,0,0,5.85456e-12,24106.7,1.00011,0.324133,0.0521392,1,1.05251,0.999424,1.00064,0,0,0,0,0.59157
Airfoil,64,64,6.80312e-12,-3.18331e-07,2.75382e-07,0,0,0,0,0,5.78601e-12,24102.5,1.00011,0.333809,0.0523709,0,0.337893,0.999419,1.00064,0,0,0,0,0.589286
Airfoil,65,65,6.80312e-12,-3.18331e-07,2.75382e-07,0,0,0,0,0,5.78601e-12,24102.5,1.00011,0.333809,0.0523709,1,1.05554,0.999419,1.00064,0,0,0,0,0.589286
Airfoil,66,66,6.72103e-12,-3.33467e-07,2.70954e-07,0,0,0,0,0,5.7162e-12,24089.4,1.0001,0.343487,0.0525641,0,0.347486,0.999418,1.00064,0,0,0,0,0.586948
Airfoil,67,67,6.72103e-12,-3.33467e-07,2.70954e-07,0,0,0,0,0,5.7162e-12,24089.4,1.0001,0.343487,0.0525641,1,1.05865,0.999418,1.00064,0,0,0,0,0.586948
Airfoil,68,68,6.65794e-12,-3.4471e-07,2.67393e-07,0,0,0,0,0,5.66255e-12,24065.3,1.0001,0.353165,0.0527554,0,0.357083,0.999418,1.00064,0,0,0,0,0.585135
Airfoil,69,69,6.65794e-12,-3.4471e-07,2.67393e-07,0,0,0,0,0,5.66255e-12,24065.3,1.0001,0.353165,0.0527554,1,1.06184,0.999418,1.00064,0,0,0,0,0.585135
Airfoil,70,70,6.59204e-12,-3.56179e-07,2.63652e-07,0,0,0,0,0,5.6065e-12,24035.4,1.0001,0.362843,0.0529108,0,0.366681,0.999417,1.00064,0,0,0,0,0.58323
Airfoil,71,71,6.59204e-12,-3.56179e-07,2.63652e-07,0,0,0,0,0,5.6065e-12,24035.4,1.0001,0.362843,0.0529108,1,1.06511,0.999417,1.00064,0,0,0,0,0.58323
Airfoil,72,72,6.54364e-12,-3.66365e-07,2.60688e-07,0,0,0,0,0,5.56533e-12,23993.4,1.0001,0.372521,0.0530651,0,0.376282,0.999419,1.00064,0,0,0,0,0.581823
Airfoil,73,73,6.54364e-12,-3.66365e-07,2.60688e-07,0,0,0,0,0,5.56533e-12,23993.4,1.0001,0.372521,0.0530651,1,1.06845,0.999419,1.00064,0,0,0,0,0.581823
Airfoil,74,74,6.50648e-12,-3.6754e-07,2.58267e-07,0,0,0,0,0,5.53372e-12,23947.2,1.0001,0.3822,0.0531889,0,0.385884,0.999419,1.00063,0,0,0,0,0.580737
Airfoil,75,75,6.50648e-12,-3.6754e-07,2.58267e-07,0,0,0,0,0,5.53372e-12,23947.2,1.0001,0.3822,0.0531889,1,1.07187,0.999419,1.00063,0,0,0,0,0.580737
Airfoil,76,76,6.47702e-12,-3.70861e-07,2.56151e-07,0,0,0,0,0,5.50865e-12,23891.4,1.0001,0.391879,0.0533116,0,0.395489,0.999421,1.00063,0,0,0,0,0.579874
Airfoil,77,77,6.47702e-12,-3.70861e-07,2.56151e-07,0,0,0,0,0,5.50865e-12,23891.4,1.0001,0.391879,0.0533116,1,1.07537,0.999421,1.00063,0,0,0,0,0.579874
Airfoil,78,78,6.47309e-12,-3.72507e-07,2.55285e-07,0,0,0,0,0,5.50531e-12,23832,1.0001,0.401558,0.0534082,0,0.405094,0.999422,1.00063,0,0,0,0,0.579759
Airfoil,79,79,6.47309e-12,-3.72507e-07,2.55285e-07,0,0,0,0,0,5.50531e-12,23832,1.0001,0.401558,0.0534082,1,1.07894,0.999422,1.00063,0,0,0,0,0.579759
Airfoil,80,80,6.45936e-12,-3.74658e-07,2.539e-07,0,0,0,0,0,5.49364e-12,23768.1,1.0001,0.411237,0.053504,0,0.414703,0.999421,1.00063,0,0,0,0,0.579355
Airfoil,81,81,6.45936e-12,-3.74658e-07,2.539e-07,0,0,0,0,0,5.49364e-12,23768.1,1.0001,0.411237,0.053504,1,1.08258,0.999421,1.00063,0,0,0,0,0.579355
Airfoil,82,82,6.4593e-12,-3.77299e-07,2.53153e-07,0,0,0,0,0,5.49357e-12,23700.1,1.0001,0.420917,0.0535714,0,0.424312,0.999422,1.00063,0,0,0,0,0.579353
Airfoil,83,83,6.4593e-12,-3.77299e-07,2.53153e-07,0,0,0,0,0,5.49357e-12,23700.1,1.0001,0.420917,0.0535714,1,1.0863,0.999422,1.00063,0,0,0,0,0.579353
Airfoil,84,84,6.44491e-12,-3.80634e-07,2.51681e-07,0,0,0,0,0,5.48135e-12,23630,1.0001,0.430596,0.0536387,0,0.433924,0.99942,1.00063,0,0,0,0,0.578928
Airfoil,85,85,6.44491e-12,-3.80634e-07,2.51681e-07,0,0,0,0,0,5.48135e-12,23630,1.0001,0.430596,0.0536387,1,1.09009,0.99942,1.00063,0,0,0,0,0.578928
Airfoil,86,86,6.4064e-12,-3.76565e-07,2.48974e-07,0,0,0,0,0,5.44859e-12,23555.3,1.0001,0.440276,0.0536689,0,0.443535,0.999422,1.00063,0,0,0,0,0.577793
Airfoil,87,87,6.4064e-12,-3.76565e-07,2.48974e-07,0,0,0,0,0,5.44859e-12,23555.3,1.0001,0.440276,0.0536689,1,1.09395,0.999422,1.00063,0,0,0,0,0.577793
Airfoil,88,88,6.3732e-12,-3.75551e-07,2.46472e-07,0,0,0,0,0,5.42034e-12,23474.1,1.0001,0.449955,0.053699,0,0.453148,0.999424,1.00063,0,0,0,0,0.576808
Airfoil,89,89,6.3732e-12,-3.75551e-07,2.46472e-07,0,0,0,0,0,5.42034e-12,23474.1,1.0001,0.449955,0.053699,1,1.09788,0.999424,1.00063,0,0,0,0,0.576808
Airfoil,90,90,6.30282e-12,-3.72832e-07,2.42134e-07,0,0,0,0,0,5.36047e-12,23388.5,1.00011,0.459635,0.0536883,0,0.46276,0.999427,1.00063,0,0,0,0,0.574709
Airfoil,91,91,6.30282e-12,-3.72832e-07,2.42134e-07,0,0,0,0,0,5.36047e-12,23388.5,1.00011,0.459635,0.0536883,1,1.10188,0.999427,1.00063,0,0,0,0,0.574709
Airfoil,92,92,6.25507e-12,-3.75126e-07,2.38806e-07,0,0,0,0,0,5.31981e-12,23292.4,1.00012,0.469314,0.0536757,0,0.472374,0.999436,1.00063,0,0,0,0,0.57328
Airfoil,93,93,6.25507e-12,-3.75126e-07,2.38806e-07,0,0,0,0,0,5.31981e-12,23292.4,1.00012,0.469314,0.0536757,1,1.10596,0.999436,1.00063,0,0,0,0,0.57328
Airfoil,94,94,6.20979e-12,-3.69909e-07,2.35598e-07,0,0,0,0,0,5.28128e-12,23192.6,1.00012,0.478994,0.0536299,0,0.481987,0.999441,1.00063,0,0,0,0,0.571913
Airfoil,95,95,6.20979e-12,-3.69909e-07,2.35598e-07,0,0,0,0,0,5.28128e-12,23192.6,1.00012,0.478994,0.0536299,1,1.1101,0.999441,1.00063,0,0,0,0,0.571913
Airfoil,96,96,6.17784e-12,-3.72672e-07,2.32959e-07,0,0,0,0,0,5.25405e-12,23084.3,1.00014,0.488673,0.0535807,0,0.491602,0.999451,1.00063,0,0,0,0,0.570948
Airfoil,97,97,6.17784e-12,-3.72672e-07,2.32959e-07,0,0,0,0,0,5.25405e-12,23084.3,1.00014,0.488673,0.0535807,1,1.1143,0.999451,1.00063,0,0,0,0,0.570948
Airfoil,98,98,6.17747e-12,-3.62462e-07,2.31816e-07,0,0,0,0,0,5.2537e-12,22973.1,1.00014,0.498352,0.0535076,0,0.501217,0.999457,1.00063,0,0,0,0,0.570936
Airfoil,99,99,6.17747e-12,-3.62462e-07,2.31816e-07,0,0,0,0,0,5.2537e-12,22973.1,1.00014,0.498352,0.0535076,1,1.11858,0.999457,1.00063,0,0,0,0,0.570936
Airfoil,100,100,6.17084e-12,-3.59739e-07,2.30336e-07,0,0,0,0,0,5.24802e-12,22857.1,1.00015,0.508032,0.0534304,0,0.510834,0.999465,1.00063,0,0,0,0,0.570735
Airfoil,101,101,6.17084e-12,-3.59739e-07,2.30336e-07,0,0,0,0,0,5.24802e-12,22857.1,1.00015,0.508032,0.0534304,1,1.12292,0.999465,1.00063,0,0,0,0,0.570735
Airfoil,102,102,6.17733e-12,-3.51311e-07,2.29452e-07,0,0,0,0,0,5.25351e-12,22738.4,1.00016,0.517711,0.0533306,0,0.52045,0.999472,1.00063,0,0,0,0,0.570932
Airfoil,103,103,6.17733e-12,-3.51311e-07,2.29452e-07,0,0,0,0,0,5.25351e-12,22738.4,1.00016,0.517711,0.0533306,1,1.12733,0.999472,1.00063,0,0,0,0,0.570932
Airfoil,104,104,6.17209e-12,-3.47472e-07,2.27974e-07,0,0,0,0,0,5.24901e-12,22615.3,1.00017,0.52739,0.0532253,0,0.530069,0.999478,1.00064,0,0,0,0,0.570773
Airfoil,105,105,6.17209e-12,-3.47472e-07,2.27974e-07,0,0,0,0,0,5.24901e-12,22615.3,1.00017,0.52739,0.0532253,1,1.1318,0.999478,1.00064,0,0,0,0,0.570773
Airfoil,106,106,6.14398e-12,-3.35814e-07,2.25401e-07,0,0,0,0,0,5.22507e-12,22488.6,1.00018,0.537068,0.0530924,0,0.539686,0.999485,1.00064,0,0,0,0,0.569918
Airfoil,107,107,6.14398e-12,-3.35814e-07,2.25401e-07,0,0,0,0,0,5.22507e-12,22488.6,1.00018,0.537068,0.0530924,1,1.13634,0.999485,1.00064,0,0,0,0,0.569918
Airfoil,108,108,6.10999e-12,-3.29994e-07,2.22508e-07,0,0,0,0,0,5.19612e-12,22356.1,1.00019,0.546747,0.0529503,0,0.549305,0.999495,1.00064,0,0,0,0,0.568882
Airfoil,109,109,6.10999e-12,-3.29994e-07,2.22508e-07,0,0,0,0,0,5.19612e-12,22356.1,1.00019,0.546747,0.0529503,1,1.14094,0.999495,1.00064,0,0,0,0,0.568882
Airfoil,110,110,6.04892e-12,-3.21701e-07,2.18358e-07,0,0,0,0,0,5.14413e-12,22218.9,1.0002,0.556425,0.0527781,0,0.558922,0.999505,1.00064,0,0,0,0,0.567007
Airfoil,111,111,6.04892e-12,-3.21701e-07,2.18358e-07,0,0,0,0,0,5.14413e-12,22218.9,1.0002,0.556425,0.0527781,1,1.1456,0.999505,1.00064,0,0,0,0,0.567007
Airfoil,112,112,5.99105e-12,-3.18894e-07,2.14327e-07,0,0,0,0,0,5.09484e-12,22076.3,1.00022,0.566103,0.0525931,0,0.568541,0.99952,1.00064,0,0,0,0,0.565224
Airfoil,113,113,5.99105e-12,-3.18894e-07,2.14327e-07,0,0,0,0,0,5.09484e-12,22076.3,1.00022,0.566103,0.0525931,1,1.15032,0.99952,1.00064,0,0,0,0,0.565224
Airfoil,114,114,5.94047e-12,-3.07982e-07,2.10634e-07,0,0,0,0,0,5.05176e-12,21929.7,1.00024,0.57578,0.0523837,0,0.578158,0.999533,1.00065,0,0,0,0,0.563651
Airfoil,115,115,5.94047e-12,-3.07982e-07,2.10634e-07,0,0,0,0,0,5.05176e-12,21929.7,1.00024,0.57578,0.0523837,1,1.1551,0.999533,1.00065,0,0,0,0,0.563651
Airfoil,116,116,5.89357e-12,-3.03303e-07,2.07101e-07,0,0,0,0,0,5.01179e-12,21779.8,1.00026,0.585457,0.0521618,0,0.587776,0.99955,1.00065,0,0,0,0,0.562188
Airfoil,117,117,5.89357e-12,-3.03303e-07,2.07101e-07,0,0,0,0,0,5.01179e-12,21779.8,1.00026,0.585457,0.0521618,1,1.15995,0.99955,1.00065,0,0,0,0,0.562188
Airfoil,118,118,5.87205e-12,-2.91073e-07,2.04701e-07,0,0,0,0,0,4.99342e-12,21627.6,1.00027,0.595134,0.0519222,0,0.597394,0.999565,1.00065,0,0,0,0,0.561514
Airfoil,119,119,5.87205e-12,-2.91073e-07,2.04701e-07,0,0,0,0,0,4.99342e-12,21627.6,1.00027,0.595134,0.0519222,1,1.16485,0.999565,1.00065,0,0,0,0,0.561514
Airfoil,120,120,5.84812e-12,-2.82676e-07,2.02188e-07,0,0,0,0,0,4.97299e-12,21472.7,1.00029,0.60481,0.0516725,0,0.607013,0.999581,1.00066,0,0,0,0,0.560761
Airfoil,121,121,5.84812e-12,-2.82676e-07,2.02188e-07,0,0,0,0,0,4.97299e-12,21472.7,1.00029,0.60481,0.0516725,1,1.16981,0.999581,1.00066,0,0,0,0,0.560761
Airfoil,122,122,5.83419e-12,-2.68964e-07,2.00099e-07,0,0,0,0,0,4.96106e-12,21315.5,1.00031,0.614486,0.0514059,0,0.616633,0.999597,1.00066,0,0,0,0,0.560322
Airfoil,123,123,5.83419e-12,-2.68964e-07,2.00099e-07,0,0,0,0,0,4.96106e-12,21315.5,1.00031,0.614486,0.0514059,1,1.17483,0.999597,1.00066,0,0,0,0,0.560322
Airfoil,124,124,5.80628e-12,-2.58365e-07,1.97382e-07,0,0,0,0,0,4.93725e-12,21154,1.00033,0.624162,0.051129,0,0.626252,0.999612,1.00066,0,0,0,0,0.559439
Airfoil,125,125,5.80628e-12,-2.58365e-07,1.97382e-07,0,0,0,0,0,4.93725e-12,21154,1.00033,0.624162,0.051129,1,1.17991,0.999612,1.00066,0,0,0,0,0.559439
Airfoil,126,126,5.76164e-12,-2.4598e-07,1.93926e-07,0,0,0,0,0,4.89921e-12,20988.7,1.00035,0.633837,0.0508299,0,0.635871,0.999629,1.00067,0,0,0,0,0.558024
Airfoil,127,127,5.76164e-12,-2.4598e-07,1.93926e-07,0,0,0,0,0,4.89921e-12,20988.7,1.00035,0.633837,0.0508299,1,1.18505,0.999629,1.00067,0,0,0,0,0.558024
Airfoil,128,128,5.69383e-12,-2.40304e-07,1.89479e-07,0,0,0,0,0,4.84146e-12,20817.5,1.00038,0.643511,0.0505174,0,0.645491,0.999647,1.00067,0,0,0,0,0.555855
Airfoil,129,129,5.69383e-12,-2.40304e-07,1.89479e-07,0,0,0,0,0,4.84146e-12,20817.5,1.00038,0.643511,0.0505174,1,1.19023,0.999647,1.00067,0,0,0,0,0.555855
Airfoil,130,130,5.60466e-12,-2.31062e-07,1.84143e-07,0,0,0,0,0,4.76554e-12,20641.8,1.0004,0.653185,0.0501765,0,0.655109,0.999669,1.00067,0,0,0,0,0.552984
Airfoil,131,131,5.60466e-12,-2.31062e-07,1.84143e-07,0,0,0,0,0,4.76554e-12,20641.8,1.0004,0.653185,0.0501765,1,1.19548,0.999669,1.00067,0,0,0,0,0.552984
Airfoil,132,132,5.48911e-12,-2.24906e-07,1.77755e-07,0,0,0,0,0,4.66718e-12,20459.4,1.00043,0.662858,0.0498202,0,0.664727,0.999692,1.00068,0,0,0,0,0.549206
Airfoil,133,133,5.48911e-12,-2.24906e-07,1.77755e-07,0,0,0,0,0,4.66718e-12,20459.4,1.00043,0.662858,0.0498202,1,1.20078,0.999692,1.00068,0,0,0,0,0.549206
Airfoil,134,134,5.35121e-12,-1.94226e-07,1.70519e-07,0,0,0,0,0,4.54981e-12,20273.1,1.00047,0.672529,0.0494298,0,0.674343,0.99972,1.00069,0,0,0,0,0.54464
Airfoil,135,135,5.35121e-12,-1.94226e-07,1.70519e-07,0,0,0,0,0,4.54981e-12,20273.1,1.00047,0.672529,0.0494298,1,1.20613,0.99972,1.00069,0,0,0,0,0.54464
Airfoil,136,136,5.18568e-12,3.03803e-06,1.62277e-07,0,0,0,0,0,4.40893e-12,20079,1.0005,0.6822,0.0490244,0,0.68396,0.999749,1.00069,0,0,0,0,0.539033
Airfoil,137,137,5.18568e-12,3.03803e-06,1.62277e-07,0,0,0,0,0,4.40893e-12,20079,1.0005,0.6822,0.0490244,1,1.21153,0.999749,1.00069,0,0,0,0,0.539033
Airfoil,138,138,4.98055e-12,-4.52085e-07,1.5264e-07,0,0,0,0,0,4.23439e-12,19882.3,1.00055,0.69187,0.0485785,0,0.693573,0.999784,1.0007,0,0,0,0,0.531933
Airfoil,139,139,4.98055e-12,-4.52085e-07,1.5264e-07,0,0,0,0,0,4.23439e-12,19882.3,1.00055,0.69187,0.0485785,1,1.21698,0.999784,1.0007,0,0,0,0,0.531933
Airfoil,140,140,4.75885e-12,-1.3736e-06,1.42586e-07,0,0,0,0,0,4.04574e-12,19681.5,1.00059,0.701539,0.0481205,0,0.703187,0.999822,1.00071,0,0,0,0,0.524023
Airfoil,141,141,4.75885e-12,-1.3736e-06,1.42586e-07,0,0,0,0,0,4.04574e-12,19681.5,1.00059,0.701539,0.0481205,1,1.22249,0.999822,1.00071,0,0,0,0,0.524023
Airfoil,142,142,4.47259e-12,-1.13019e-06,1.30464e-07,0,0,0,0,0,3.80222e-12,19481.3,1.00065,0.711205,0.0476232,0,0.712798,0.999865,1.00072,0,0,0,0,0.513405
Airfoil,143,143,4.47259e-12,-1.13019e-06,1.30464e-07,0,0,0,0,0,3.80222e-12,19481.3,1.00065,0.711205,0.0476232,1,1.22804,0.999865,1.00072,0,0,0,0,0.513405
Airfoil,144,144,4.22952e-12,-1.26685e-06,1.20282e-07,0,0,0,0,0,3.59539e-12,19295.1,1.00071,0.720872,0.0471201,0,0.72241,0.999916,1.00073,0,0,0,0,0.504121
Airfoil,145,145,4.22952e-12,-1.26685e-06,1.20282e-07,0,0,0,0,0,3.59539e-12,19295.1,1.00071,0.720872,0.0471201,1,1.23364,0.999916,1.00073,0,0,0,0,0.504121
Airfoil,146,146,4.01144e-12,3.39444e-08,1.11368e-07,0,0,0,0,0,3.40985e-12,19116.6,1.00077,0.730538,0.0466076,0,0.732023,0.999963,1.00074,0,0,0,0,0.495372
Airfoil,147,147,4.01144e-12,3.39444e-08,1.11368e-07,0,0,0,0,0,3.40985e-12,19116.6,1.00077,0.730538,0.0466076,1,1.2393,0.999963,1.00074,0,0,0,0,0.495372
Airfoil,148,148,3.79287e-12,-2.49041e-07,1.02766e-07,0,0,0,0,0,3.22389e-12,18960.6,1.00083,0.740204,0.0461003,0,0.741638,1.00002,1.00076,0,0,0,0,0.486372
Airfoil,149,149,3.79287e-12,-2.49041e-07,1.02766e-07,0,0,0,0,0,3.22389e-12,18960.6,1.00083,0.740204,0.0461003,1,1.245,1.00002,1.00076,0,0,0,0,0.486372
Airfoil,150,150,3.65827e-12,-1.08186e-07,9.728e-08,0,0,0,0,0,3.10933e-12,18823.4,1.0009,0.749871,0.0456161,0,0.751258,1.00006,1.00077,0,0,0,0,0.480634
Airfoil,151,151,3.65827e-12,-1.08186e-07,9.728e-08,0,0,0,0,0,3.10933e-12,18823.4,1.0009,0.749871,0.0456161,1,1.25076,1.00006,1.00077,0,0,0,0,0.480634
Airfoil,152,152,3.48604e-12,7.74693e-08,9.08278e-08,0,0,0,0,0,2.96281e-12,18705.3,1.00095,0.75954,0.0451573,0,0.760881,1.00011,1.00078,0,0,0,0,0.473025
Airfoil,153,153,3.48604e-12,7.74693e-08,9.08278e-08,0,0,0,0,0,2.96281e-12,18705.3,1.00095,0.75954,0.0451573,1,1.25656,1.00011,1.00078,0,0,0,0,0.473025
Airfoil,154,154,3.3974e-12,-6.82525e-07,8.73189e-08,0,0,0,0,0,2.88734e-12,18625.1,1.00102,0.769211,0.0447374,0,0.770511,1.00016,1.00079,0,0,0,0,0.469086
Airfoil,155,155,3.3974e-12,-6.82525e-07,8.73189e-08,0,0,0,0,0,2.88734e-12,18625.1,1.00102,0.769211,0.0447374,1,1.26241,1.00016,1.00079,0,0,0,0,0.469086
Airfoil,156,156,3.30895e-12,8.64165e-08,8.39759e-08,0,0,0,0,0,2.81206e-12,18555.1,1.00106,0.778884,0.0443814,0,0.780147,1.00019,1.0008,0,0,0,0,0.464971
Airfoil,157,157,3.30895e-12,8.64165e-08,8.39759e-08,0,0,0,0,0,2.81206e-12,18555.1,1.00106,0.778884,0.0443814,1,1.26832,1.00019,1.0008,0,0,0,0,0.464971
Airfoil,158,158,3.21465e-12,7.3296e-07,8.07637e-08,0,0,0,0,0,2.7318e-12,18549.2,1.00112,0.788558,0.0440598,0,0.789788,1.00024,1.00081,0,0,0,0,0.460627
Airfoil,159,159,3.21465e-12,7.3296e-07,8.07637e-08,0,0,0,0,0,2.7318e-12,18549.2,1.00112,0.788558,0.0440598,1,1.27427,1.00024,1.00081,0,0,0,0,0.460627
Airfoil,160,160,3.31267e-12,-2.143e-07,8.37568e-08,0,0,0,0,0,2.815e-12,18576.8,1.00116,0.798235,0.043861,0,0.799439,1.00027,1.00082,0,0,0,0,0.465174
Airfoil,161,161,3.31267e-12,-2.143e-07,8.37568e-08,0,0,0,0,0,2.815e-12,18576.8,1.00116,0.798235,0.043861,1,1.28027,1.00027,1.00082,0,0,0,0,0.465174
Airfoil,162,162,3.28649e-12,-4.15877e-07,8.29336e-08,0,0,0,0,0,2.7927e-12,18618.4,1.00119,0.807913,0.0437141,0,0.809095,1.00029,1.00083,0,0,0,0,0.463938
Airfoil,163,163,3.28649e-12,-4.15877e-07,8.29336e-08,0,0,0,0,0,2.7927e-12,18618.4,1.00119,0.807913,0.0437141,1,1.28633,1.00029,1.00083,0,0,0,0,0.463938
Airfoil,164,164,3.34156e-12,-2.19299e-06,8.5134e-08,0,0,0,0,0,2.8394e-12,18742.6,1.00123,0.817593,0.0436743,0,0.818759,1.00033,1.00084,0,0,0,0,0.466415
Airfoil,165,165,3.34156e-12,-2.19299e-06,8.5134e-08,0,0,0,0,0,2.8394e-12,18742.6,1.00123,0.817593,0.0436743,1,1.29243,1.00033,1.00084,0,0,0,0,0.466415
Airfoil,166,166,3.47169e-12,-1.15932e-07,8.96839e-08,0,0,0,0,0,2.94995e-12,18866.9,1.00124,0.827272,0.0437486,0,0.828428,1.00034,1.00084,0,0,0,0,0.47243
Airfoil,167,167,3.47169e-12,-1.15932e-07,8.96839e-08,0,0,0,0,0,2.94995e-12,18866.9,1.00124,0.827272,0.0437486,1,1.29857,1.00034,1.00084,0,0,0,0,0.47243
Airfoil,168,168,3.4782e-12,-1.10762e-07,9.07223e-08,0,0,0,0,0,2.95543e-12,19062.9,1.00126,0.83695,0.0438982,0,0.838101,1.00035,1.00084,0,0,0,0,0.472718
Airfoil,169,169,3.4782e-12,-1.10762e-07,9.07223e-08,0,0,0,0,0,2.95543e-12,19062.9,1.00126,0.83695,0.0438982,1,1.30477,1.00035,1.00084,0,0,0,0,0.472718
Airfoil,170,170,3.6937e-12,-1.12768e-07,9.9268e-08,0,0,0,0,0,3.13851e-12,19341.3,1.00127,0.846625,0.0441962,0,0.847778,1.00036,1.00084,0,0,0,0,0.482037
Airfoil,171,171,3.6937e-12,-1.12768e-07,9.9268e-08,0,0,0,0,0,3.13851e-12,19341.3,1.00127,0.846625,0.0441962,1,1.311,1.00036,1.00084,0,0,0,0,0.482037
Airfoil,172,172,3.88751e-12,-6.00643e-08,1.0715e-07,0,0,0,0,0,3.30322e-12,19604.6,1.00126,0.856296,0.0446096,0,0.857457,1.00035,1.00084,0,0,0,0,0.490341
Airfoil,173,173,3.88751e-12,-6.00643e-08,1.0715e-07,0,0,0,0,0,3.30322e-12,19604.6,1.00126,0.856296,0.0446096,1,1.31728,1.00035,1.00084,0,0,0,0,0.490341
Airfoil,174,174,3.9656e-12,-4.733e-08,1.11692e-07,0,0,0,0,0,3.36959e-12,19934.9,1.00126,0.865961,0.0451207,0,0.867136,1.00035,1.00084,0,0,0,0,0.493545
Airfoil,175,175,3.9656e-12,-4.733e-08,1.11692e-07,0,0,0,0,0,3.36959e-12,19934.9,1.00126,0.865961,0.0451207,1,1.3236,1.00035,1.00084,0,0,0,0,0.493545
Airfoil,176,176,4.19469e-12,-4.12365e-08,1.22528e-07,0,0,0,0,0,3.5643e-12,20358.9,1.00124,0.87562,0.045765,0,0.876815,1.00034,1.00084,0,0,0,0,0.502671
Airfoil,177,177,4.19469e-12,-4.12365e-08,1.22528e-07,0,0,0,0,0,3.5643e-12,20358.9,1.00124,0.87562,0.045765,1,1.32996,1.00034,1.00084,0,0,0,0,0.502671
Airfoil,178,178,4.46375e-12,6.11804e-08,1.35328e-07,0,0,0,0,0,3.79303e-12,20789.6,1.00121,0.885268,0.0465389,0,0.88649,1.00031,1.00083,0,0,0,0,0.513105
Airfoil,179,179,4.46375e-12,6.11804e-08,1.35328e-07,0,0,0,0,0,3.79303e-12,20789.6,1.00121,0.885268,0.0465389,1,1.33636,1.00031,1.00083,0,0,0,0,0.513105
Airfoil,180,180,4.64367e-12,-7.75118e-08,1.45346e-07,0,0,0,0,0,3.94604e-12,21235.4,1.00116,0.894908,0.047413,0,0.896163,1.00027,1.00082,0,0,0,0,0.519828
Airfoil,181,181,4.64367e-12,-7.75118e-08,1.45346e-07,0,0,0,0,0,3.94604e-12,21235.4,1.00116,0.894908,0.047413,1,1.3428,1.00027,1.00082,0,0,0,0,0.519828
Airfoil,182,182,4.82143e-12,-2.64152e-08,1.56217e-07,0,0,0,0,0,4.09725e-12,21749.4,1.00112,0.904537,0.0483922,0,0.905831,1.00024,1.00081,0,0,0,0,0.526274
Airfoil,183,183,4.82143e-12,-2.64152e-08,1.56217e-07,0,0,0,0,0,4.09725e-12,21749.4,1.00112,0.904537,0.0483922,1,1.34927,1.00024,1.00081,0,0,0,0,0.526274
Airfoil,184,184,5.06169e-12,1.43625e-07,1.71013e-07,0,0,0,0,0,4.30162e-12,22363.7,1.00106,0.914156,0.0494802,0,0.915494,1.00019,1.0008,0,0,0,0,0.534731
Airfoil,185,185,5.06169e-12,1.43625e-07,1.71013e-07,0,0,0,0,0,4.30162e-12,22363.7,1.00106,0.914156,0.0494802,1,1.35578,1.00019,1.0008,0,0,0,0,0.534731
Airfoil,186,186,5.41577e-12,3.7631e-08,1.92489e-07,0,0,0,0,0,4.6028e-12,23065.2,1.00099,0.923759,0.0506924,0,0.925149,1.00013,1.00079,0,0,0,0,0.546686
Airfoil,187,187,5.41577e-12,3.7631e-08,1.92489e-07,0,0,0,0,0,4.6028e-12,23065.2,1.00099,0.923759,0.0506924,1,1.36231,1.00013,1.00079,0,0,0,0,0.546686
Airfoil,188,188,5.83328e-12,5.75177e-07,2.1873e-07,0,0,0,0,0,4.95805e-12,23816.5,1.00089,0.933347,0.05202,0,0.934796,1.00005,1.00077,0,0,0,0,0.560204
Airfoil,189,189,5.83328e-12,5.75177e-07,2.1873e-07,0,0,0,0,0,4.95805e-12,23816.5,1.00089,0.933347,0.05202,1,1.36888,1.00005,1.00077,0,0,0,0,0.560204
Airfoil,190,190,6.42372e-12,3.76071e-07,2.55938e-07,0,0,0,0,0,5.46042e-12,24576.1,1.00077,0.942919,0.0534564,0,0.944434,0.999956,1.00074,0,0,0,0,0.578053
Airfoil,191,191,6.42372e-12,3.76071e-07,2.55938e-07,0,0,0,0,0,5.46042e-12,24576.1,1.00077,0.942919,0.0534564,1,1.37548,0.999956,1.00074,0,0,0,0,0.578053
Airfoil,192,192,6.93258e-12,-4.4505e-07,2.89492e-07,0,0,0,0,0,5.89377e-12,25209.5,1.0006,0.952479,0.054978,0,0.954064,0.999818,1.00071,0,0,0,0,0.592913
Airfoil,193,193,6.93258e-12,-4.4505e-07,2.89492e-07,0,0,0,0,0,5.89377e-12,25209.5,1.0006,0.952479,0.054978,1,1.38211,0.999818,1.00071,0,0,0,0,0.592913
Airfoil,194,194,7.67254e-12,-1.06328e-06,3.40552e-07,0,0,0,0,0,6.52363e-12,25920.1,1.00044,0.962032,0.0565335,0,0.963692,0.9997,1.00068,0,0,0,0,0.612534
Airfoil,195,195,7.67254e-12,-1.06328e-06,3.40552e-07,0,0,0,0,0,6.52363e-12,25920.1,1.00044,0.962032,0.0565335,1,1.38878,0.9997,1.00068,0,0,0,0,0.612534