Block Name,Point ID,alphat_average,alphat_maximum,alphat_minimum,Cp,k_average,k_maximum,k_minimum,Normals_average_0,Normals_average_1,Normals_average_2,Normals_average_Magnitude,Normals_maximum_0,Normals_maximum_1,Normals_maximum_2,Normals_maximum_Magnitude,Normals_minimum_0,Normals_minimum_1,Normals_minimum_2,Normals_minimum_Magnitude,nut_average,nut_maximum,nut_minimum,omega_average,omega_maximum,omega_minimum,p_average,p_maximum,p_minimum,Points_0,Points_1,Points_2,Points_Magnitude,rho_average,rho_maximum,rho_minimum,T_average,T_maximum,T_minimum,U_average_0,U_average_1,U_average_2,U_average_Magnitude,U_maximum_0,U_maximum_1,U_maximum_2,U_maximum_Magnitude,U_minimum_0,U_minimum_1,U_minimum_2,U_minimum_Magnitude
Airfoil,0,2.9872e-07,3.01151e-07,2.60659e-07,0.182752,2.94133e-05,2.96964e-05,2.81671e-05,0.153235,-0.98819,0,1,0.153235,-0.98819,0,1,0.153235,-0.98819,0,1,2.53846e-07,2.55884e-07,2.21836e-07,22.6775,22.8134,22.3806,1.00098,1.0011,0.999574,0.0465246,0.034836,0,0.0581213,1.00027,1.00039,0.998859,1.00071,1.00071,1.00068,0,0,0,0,0,0,0,0,0,0,0,0
Airfoil,1,2.9872e-07,3.01151e-07,2.60659e-07,0.182752,2.94133e-05,2.96964e-05,2.81671e-05,0.153235,-0.98819,0,1,0.153235,-0.98819,0,1,0.153235,-0.98819,0,1,2.53846e-07,2.55884e-07,2.21836e-07,22.6775,22.8134,22.3806,1.00098,1.0011,0.999574,0.0465246,0.034836,1,1.00169,1.00027,1.00039,0.998859,1.00071,1.00071,1.00068,0,0,0,0,0,0,0,0,0,0,0,0
Airfoil,2,3.70663e-07,4.16223e-07,3.66783e-07,0.180237,9.52877e-06,1.31514e-05,8.78102e-06,0.219707,-0.975566,0,1,0.219707,-0.975566,0,1,0.219707,-0.975566,0,1,3.14914e-07,3.54184e-07,3.11575e-07,14.8484,16.2101,14.5413,1.00097,1.00112,0.999101,0.0250899,0.0312981,1,1.0008,1.00045,1.00058,0.998825,1.00052,1.00054,1.00028,0,0,0,0,0,0,0,0,0,0,0,0
Airfoil,3,3.70663e-07,4.16223e-07,3.66783e-07,0.180237,9.52877e-06,1.31514e-05,8.78102e-06,0.219707,-0.975566,0,1,0.219707,-0.975566,0,1,0.219707,-0.975566,0,1,3.14914e-07,3.54184e-07,3.11575e-07,14.8484,16.2101,14.5413,1.00097,1.00112,0.999101,0.0250899,0.0312981,0,0.0401133,1.00045,1.00058,0.998825,1.00052,1.00054,1.00028,0,0,0,0,0,0,0,0,0,0,0,0
Airfoil,4,2.53265e-07,2.60035e-07,1.58279e-07,0.21317,4.59926e-05,4.70613e-05,3.3818e-05,0.132825,-0.99114,0,1,0.132825,-0.991139,0,1,0.132825,-0.991139,0,1,2.15184e-07,2.2092e-07,1.34635e-07,28.0431,28.3104,24.9051,1.00114,1.00124,1.00007,0.0680241,0.0379557,0,0.0778968,1.0004,1.0005,0.999281,1.00074,1.00078,1.00072,0,0,0,0,0,0,0,0,0,0,0,0
Airfoil,5,2.53265e-07,2.60035e-07,1.58279e-07,0.21317,4.59926e-05,4.70613e-05,3.3818e-05,0.132825,-0.99114,0,1,0.132825,-0.991139,0,1,0.132825,-0.991139,0,1,2.15184e-07,2.2092e-07,1.34635e-07,28.0431,28.3104,24.9051,1.00114,1.00124,1.00007,0.0680241,0.0379557,1,1.00303,1.0004,1.0005,0.999281,1.00074,1.00078,1.00072,0,0,0,0,0,0,0,0,0,0,0,0
Airfoil,6,2.34316e-07,2.41564e-07,1.39348e-07,0.186134,5.32761e-05,5.50005e-05,3.27419e-05,0.110731,-0.993851,0,1,0.110731,-0.99385,0,1,0.110731,-0.99385,0,1,1.99106e-07,2.05252e-07,1.18521e-07,30.687,31.1126,25.4108,1.001,1.00108,1.00005,0.0895864,0.0406069,0,0.0983597,1.00029,1.00038,0.999359,1.0007,1.00071,1.00068,0,0,0,0,0,0,0,0,0,0,0,0
Airfoil,7,2.34316e-07,2.41564e-07,1.39348e-07,0.186134,5.32761e-05,5.50005e-05,3.27419e-05,0.110731,-0.993851,0,1,0.110731,-0.99385,0,1,0.110731,-0.99385,0,1,1.99106e-07,2.05252e-07,1.18521e-07,30.687,31.1126,25.4108,1.001,1.00108,1.00005,0.0895864,0.0406069,1,1.00483,1.00029,1.00038,0.999359,1.0007,1.00071,1.00068,0,0,0,0,0,0,0,0,0,0,0,0
Airfoil,8,2.30319e-07,2.36022e-07,1.62715e-07,0.155516,5.64801e-05,5.82147e-05,3.87732e-05,0.0913823,-0.995816,0,1,0.0913823,-0.995816,0,1,0.0913823,-0.995816,0,1,1.95734e-07,2.0057e-07,1.38387e-07,32.226,32.6485,27.7591,1.00083,1.00091,1.00002,0.111204,0.0427667,0,0.119144,1.00018,1.00025,0.999422,1.00066,1.00067,1.0006,0,0,0,0,0,0,0,0,0,0,0,0
Airfoil,9,2.30319e-07,2.36022e-07,1.62715e-07,0.155516,5.64801e-05,5.82147e-05,3.87732e-05,0.0913823,-0.995816,0,1,0.0913823,-0.995816,0,1,0.0913823,-0.995816,0,1,1.95734e-07,2.0057e-07,1.38387e-07,32.226,32.6485,27.7591,1.00083,1.00091,1.00002,0.111204,0.0427667,1,1.00707,1.00018,1.00025,0.999422,1.00066,1.00067,1.0006,0,0,0,0,0,0,0,0,0,0,0,0
Airfoil,10,2.29333e-07,2.33126e-07,1.90321e-07,0.136469,5.86553e-05,5.99362e-05,4.90794e-05,0.0737702,-0.997275,0,1,0.0737702,-0.997275,0,1,0.0737702,-0.997275,0,1,1.94909e-07,1.98124e-07,1.61847e-07,33.4281,33.7344,31.11,1.00073,1.0008,1.00005,0.132853,0.0445773,0,0.140132,1.00012,1.00018,0.999536,1.00061,1.00063,1.00052,0,0,0,0,0,0,0,0,0,0,0,0
Airfoil,11,2.29333e-07,2.33126e-07,1.90321e-07,0.136469,5.86553e-05,5.99362e-05,4.90794e-05,0.0737702,-0.997275,0,1,0.0737702,-0.997275,0,1,0.0737702,-0.997275,0,1,1.94909e-07,1.98124e-07,1.61847e-07,33.4281,33.7344,31.11,1.00073,1.0008,1.00005,0.132853,0.0445773,1,1.00977,1.00012,1.00018,0.999536,1.00061,1.00063,1.00052,0,0,0,0,0,0,0,0,0,0,0,0
Airfoil,12,2.24375e-07,2.26475e-07,2.07669e-07,0.127546,5.98349e-05,6.05332e-05,5.39234e-05,0.0564073,-0.998407,0,1,0.0564073,-0.998408,0,1,0.0564073,-0.998408,0,1,1.90699e-07,1.92478e-07,1.7658e-07,34.3152,34.4809,32.8968,1.00068,1.00075,1.00011,0.154533,0.0459718,0,0.161226,1.0001,1.00015,0.999652,1.00058,1.0006,1.00046,0,0,0,0,0,0,0,0,0,0,0,0
Airfoil,13,2.24375e-07,2.26475e-07,2.07669e-07,0.127546,5.98349e-05,6.05332e-05,5.39234e-05,0.0564073,-0.998407,0,1,0.0564073,-0.998408,0,1,0.0564073,-0.998408,0,1,1.90699e-07,1.92478e-07,1.7658e-07,34.3152,34.4809,32.8968,1.00068,1.00075,1.00011,0.154533,0.0459718,1,1.01291,1.0001,1.00015,0.999652,1.00058,1.0006,1.00046,0,0,0,0,0,0,0,0,0,0,0,0
Airfoil,14,2.18915e-07,2.19644e-07,2.14145e-07,0.128836,6.00283e-05,6.6195e-05,5.77505e-05,0.0445927,-0.999005,0,1,0.0445927,-0.999005,0,1,0.0445927,-0.999005,0,1,1.86055e-07,1.86668e-07,1.82051e-07,34.7413,36.1761,34.1992,1.00069,1.00075,1.00019,0.176232,0.0470281,0,0.182399,1.00012,1.00017,0.999767,1.00057,1.00058,1.00042,0,0,0,0,0,0,0,0,0,0,0,0
Airfoil,15,2.18915e-07,2.19644e-07,2.14145e-07,0.128836,6.00283e-05,6.6195e-05,5.77505e-05,0.0445927,-0.999005,0,1,0.0445927,-0.999005,0,1,0.0445927,-0.999005,0,1,1.86055e-07,1.86668e-07,1.82051e-07,34.7413,36.1761,34.1992,1.00069,1.00075,1.00019,0.176232,0.0470281,1,1.0165,1.00012,1.00017,0.999767,1.00057,1.00058,1.00042,0,0,0,0,0,0,0,0,0,0,0,0
Airfoil,16,2.17211e-07,2.26655e-07,2.1622e-07,0.134666,6.02066e-05,7.12062e-05,5.94651e-05,0.0389314,-0.999242,0,1,0.0389314,-0.999242,0,1,0.0389314,-0.999242,0,1,1.84597e-07,1.92681e-07,1.83753e-07,34.9424,37.467,34.7698,1.00072,1.00077,1.00027,0.19794,0.0479093,0,0.203655,1.00017,1.00021,0.999876,1.00055,1.00056,1.0004,0,0,0,0,0,0,0,0,0,0,0,0
Airfoil,17,2.17211e-07,2.26655e-07,2.1622e-07,0.134666,6.02066e-05,7.12062e-05,5.94651e-05,0.0389314,-0.999242,0,1,0.0389314,-0.999242,0,1,0.0389314,-0.999242,0,1,1.84597e-07,1.92681e-07,1.83753e-07,34.9424,37.467,34.7698,1.00072,1.00077,1.00027,0.19794,0.0479093,1,1.02053,1.00017,1.00021,0.999876,1.00055,1.00056,1.0004,0,0,0,0,0,0,0,0,0,0,0,0
Airfoil,18,2.19626e-07,2.34377e-07,2.1856e-07,0.138093,6.1208e-05,7.4714e-05,6.03586e-05,0.0364185,-0.999336,0,1,0.0364185,-0.999337,0,1,0.0364185,-0.999337,0,1,1.86642e-07,1.99229e-07,1.85731e-07,35.2276,38.2886,35.0319,1.00074,1.00079,1.00033,0.21965,0.0487197,0,0.224988,1.00021,1.00025,0.999955,1.00052,1.00054,1.00038,0,0,0,0,0,0,0,0,0,0,0,0
Airfoil,19,2.19626e-07,2.34377e-07,2.1856e-07,0.138093,6.1208e-05,7.4714e-05,6.03586e-05,0.0364185,-0.999336,0,1,0.0364185,-0.999337,0,1,0.0364185,-0.999337,0,1,1.86642e-07,1.99229e-07,1.85731e-07,35.2276,38.2886,35.0319,1.00074,1.00079,1.00033,0.21965,0.0487197,1,1.025,1.00021,1.00025,0.999955,1.00052,1.00054,1.00038,0,0,0,0,0,0,0,0,0,0,0,0
Airfoil,20,2.24813e-07,2.41662e-07,2.23511e-07,0.137537,6.31565e-05,7.71703e-05,6.21755e-05,0.0354555,-0.999371,0,1,0.0354555,-0.999371,0,1,0.0354555,-0.999371,0,1,1.91047e-07,2.05413e-07,1.89935e-07,35.6836,38.8179,35.4605,1.00074,1.00079,1.00036,0.241361,0.0494917,0,0.246383,1.00023,1.00027,0.999999,1.0005,1.00052,1.00036,0,0,0,0,0,0,0,0,0,0,0,0
Airfoil,21,2.24813e-07,2.41662e-07,2.23511e-07,0.137537,6.31565e-05,7.71703e-05,6.21755e-05,0.0354555,-0.999371,0,1,0.0354555,-0.999371,0,1,0.0354555,-0.999371,0,1,1.91047e-07,2.05413e-07,1.89935e-07,35.6836,38.8179,35.4605,1.00074,1.00079,1.00036,0.241361,0.0494917,1,1.02991,1.00023,1.00027,0.999999,1.0005,1.00052,1.00036,0,0,0,0,0,0,0,0,0,0,0,0
Airfoil,22,2.31393e-07,2.48411e-07,2.30028e-07,0.133487,6.57228e-05,7.89972e-05,6.47152e-05,0.0348691,-0.999392,0,1,0.034869,-0.999392,0,1,0.034869,-0.999392,0,1,1.96639e-07,2.11147e-07,1.95474e-07,36.262,39.1911,36.0362,1.00072,1.00077,1.00037,0.263073,0.0502602,0,0.267831,1.00023,1.00027,1.00001,1.00048,1.0005,1.00035,0,0,0,0,0,0,0,0,0,0,0,0
Airfoil,23,2.31393e-07,2.48411e-07,2.30028e-07,0.133487,6.57228e-05,7.89972e-05,6.47152e-05,0.0348691,-0.999392,0,1,0.034869,-0.999392,0,1,0.034869,-0.999392,0,1,1.96639e-07,2.11147e-07,1.95474e-07,36.262,39.1911,36.0362,1.00072,1.00077,1.00037,0.263073,0.0502602,1,1.03525,1.00023,1.00027,1.00001,1.00048,1.0005,1.00035,0,0,0,0,0,0,0,0,0,0,0,0
Airfoil,24,2.37606e-07,2.53922e-07,2.36245e-07,0.1265,6.83753e-05,8.03523e-05,6.74038e-05,0.0325911,-0.999469,0,1,0.0325911,-0.999469,0,1,0.0325911,-0.999469,0,1,2.01923e-07,2.15832e-07,2.00762e-07,36.8772,39.4891,36.6624,1.00068,1.00073,1.00035,0.284786,0.0510068,0,0.289317,1.00021,1.00025,1.00001,1.00047,1.00048,1.00035,0,0,0,0,0,0,0,0,0,0,0,0
Airfoil,25,2.37606e-07,2.53922e-07,2.36245e-07,0.1265,6.83753e-05,8.03523e-05,6.74038e-05,0.0325911,-0.999469,0,1,0.0325911,-0.999469,0,1,0.0325911,-0.999469,0,1,2.01923e-07,2.15832e-07,2.00762e-07,36.8772,39.4891,36.6624,1.00068,1.00073,1.00035,0.284786,0.0510068,1,1.04101,1.00021,1.00025,1.00001,1.00047,1.00048,1.00035,0,0,0,0,0,0,0,0,0,0,0,0
Airfoil,26,2.42072e-07,2.5743e-07,2.4074e-07,0.119335,7.06153e-05,8.12185e-05,6.97173e-05,0.0283125,-0.999599,0,1,0.0283125,-0.999599,0,1,0.0283125,-0.999599,0,1,2.05725e-07,2.18819e-07,2.04588e-07,37.4097,39.702,37.2131,1.00064,1.00069,1.00034,0.3065,0.0516763,0,0.310826,1.00018,1.00022,0.999987,1.00046,1.00048,1.00035,0,0,0,0,0,0,0,0,0,0,0,0
Airfoil,27,2.42072e-07,2.5743e-07,2.4074e-07,0.119335,7.06153e-05,8.12185e-05,6.97173e-05,0.0283125,-0.999599,0,1,0.0283125,-0.999599,0,1,0.0283125,-0.999599,0,1,2.05725e-07,2.18819e-07,2.04588e-07,37.4097,39.702,37.2131,1.00064,1.00069,1.00034,0.3065,0.0516763,1,1.04719,1.00018,1.00022,0.999987,1.00046,1.00048,1.00035,0,0,0,0,0,0,0,0,0,0,0,0
Airfoil,28,2.44484e-07,2.58894e-07,2.43206e-07,0.114684,7.21404e-05,8.15354e-05,7.13247e-05,0.0233729,-0.999727,0,1,0.0233729,-0.999727,0,1,0.0233729,-0.999727,0,1,2.0778e-07,2.20065e-07,2.06689e-07,37.7589,39.7793,37.5815,1.00061,1.00067,1.00033,0.328218,0.052237,0,0.332349,1.00015,1.00019,0.999969,1.00046,1.00047,1.00036,0,0,0,0,0,0,0,0,0,0,0,0
Airfoil,29,2.44484e-07,2.58894e-07,2.43206e-07,0.114684,7.21404e-05,8.15354e-05,7.13247e-05,0.0233729,-0.999727,0,1,0.0233729,-0.999727,0,1,0.0233729,-0.999727,0,1,2.0778e-07,2.20065e-07,2.06689e-07,37.7589,39.7793,37.5815,1.00061,1.00067,1.00033,0.328218,0.052237,1,1.05378,1.00015,1.00019,0.999969,1.00046,1.00047,1.00036,0,0,0,0,0,0,0,0,0,0,0,0
Airfoil,30,2.45393e-07,2.58846e-07,2.44186e-07,0.112704,7.29148e-05,8.13166e-05,7.21773e-05,0.0187654,-0.999824,0,1,0.0187654,-0.999824,0,1,0.0187654,-0.999824,0,1,2.08555e-07,2.20025e-07,2.07525e-07,37.901,39.7035,37.7412,1.0006,1.00066,1.00033,0.349939,0.0526919,0,0.353884,1.00014,1.00018,0.999959,1.00046,1.00048,1.00037,0,0,0,0,0,0,0,0,0,0,0,0
Airfoil,31,2.45393e-07,2.58846e-07,2.44186e-07,0.112704,7.29148e-05,8.13166e-05,7.21773e-05,0.0187654,-0.999824,0,1,0.0187654,-0.999824,0,1,0.0187654,-0.999824,0,1,2.08555e-07,2.20025e-07,2.07525e-07,37.901,39.7035,37.7412,1.0006,1.00066,1.00033,0.349939,0.0526919,1,1.06077,1.00014,1.00018,0.999959,1.00046,1.00048,1.00037,0,0,0,0,0,0,0,0,0,0,0,0
Airfoil,32,2.45422e-07,2.57927e-07,2.44298e-07,0.112125,7.30782e-05,8.06666e-05,7.2412e-05,0.0146076,-0.999893,0,1,0.0146076,-0.999893,0,1,0.0146076,-0.999893,0,1,2.08581e-07,2.19243e-07,2.07622e-07,37.8704,39.498,37.7262,1.0006,1.00065,1.00033,0.371661,0.0530524,0,0.375429,1.00013,1.00017,0.999954,1.00047,1.00048,1.00038,0,0,0,0,0,0,0,0,0,0,0,0
Airfoil,33,2.45422e-07,2.57927e-07,2.44298e-07,0.112125,7.30782e-05,8.06666e-05,7.2412e-05,0.0146076,-0.999893,0,1,0.0146076,-0.999893,0,1,0.0146076,-0.999893,0,1,2.08581e-07,2.19243e-07,2.07622e-07,37.8704,39.498,37.7262,1.0006,1.00065,1.00033,0.371661,0.0530524,1,1.06815,1.00013,1.00017,0.999954,1.00047,1.00048,1.00038,0,0,0,0,0,0,0,0,0,0,0,0
Airfoil,34,2.45165e-07,2.56873e-07,2.44122e-07,0.112103,7.28486e-05,7.97781e-05,7.22449e-05,0.011015,-0.999939,0,1,0.011015,-0.999939,0,1,0.011015,-0.999939,0,1,2.08365e-07,2.18345e-07,2.07474e-07,37.7189,39.2065,37.5882,1.0006,1.00065,1.00034,0.393385,0.0533266,0,0.396983,1.00012,1.00016,0.999951,1.00048,1.00049,1.00039,0,0,0,0,0,0,0,0,0,0,0,0
Airfoil,35,2.45165e-07,2.56873e-07,2.44122e-07,0.112103,7.28486e-05,7.97781e-05,7.22449e-05,0.011015,-0.999939,0,1,0.011015,-0.999939,0,1,0.011015,-0.999939,0,1,2.08365e-07,2.18345e-07,2.07474e-07,37.7189,39.2065,37.5882,1.0006,1.00065,1.00034,0.393385,0.0533266,1,1.07592,1.00012,1.00016,0.999951,1.00048,1.00049,1.00039,0,0,0,0,0,0,0,0,0,0,0,0
Airfoil,36,2.44982e-07,2.56069e-07,2.44006e-07,0.111992,7.24318e-05,7.88426e-05,7.188e-05,0.00763304,-0.999971,0,1,0.00763304,-0.999971,0,1,0.00763304,-0.999971,0,1,2.08211e-07,2.1766e-07,2.07377e-07,37.4996,38.8773,37.38,1.0006,1.00065,1.00035,0.415109,0.053531,0,0.418546,1.00012,1.00015,0.999949,1.00048,1.0005,1.0004,0,0,0,0,0,0,0,0,0,0,0,0
Airfoil,37,2.44982e-07,2.56069e-07,2.44006e-07,0.111992,7.24318e-05,7.88426e-05,7.188e-05,0.00763304,-0.999971,0,1,0.00763304,-0.999971,0,1,0.00763304,-0.999971,0,1,2.08211e-07,2.1766e-07,2.07377e-07,37.4996,38.8773,37.38,1.0006,1.00065,1.00035,0.415109,0.053531,1,1.08406,1.00012,1.00015,0.999949,1.00048,1.0005,1.0004,0,0,0,0,0,0,0,0,0,0,0,0
Airfoil,38,2.44567e-07,2.55154e-07,2.43643e-07,0.111769,7.18815e-05,7.78771e-05,7.13709e-05,0.00365247,-0.999994,0,1,0.00365247,-0.999993,0,1,0.00365247,-0.999993,0,1,2.07859e-07,2.16882e-07,2.07071e-07,37.2323,38.5222,37.1216,1.0006,1.00065,1.00035,0.436834,0.0536583,0,0.440117,1.00011,1.00015,0.999945,1.00049,1.0005,1.00041,0,0,0,0,0,0,0,0,0,0,0,0
Airfoil,39,2.44567e-07,2.55154e-07,2.43643e-07,0.111769,7.18815e-05,7.78771e-05,7.13709e-05,0.00365247,-0.999994,0,1,0.00365247,-0.999993,0,1,0.00365247,-0.999993,0,1,2.07859e-07,2.16882e-07,2.07071e-07,37.2323,38.5222,37.1216,1.0006,1.00065,1.00035,0.436834,0.0536583,1,1.09257,1.00011,1.00015,0.999945,1.00049,1.0005,1.00041,0,0,0,0,0,0,0,0,0,0,0,0
Airfoil,40,2.43499e-07,2.53632e-07,2.42618e-07,0.112571,7.11139e-05,7.67514e-05,7.06365e-05,-0.000803524,-1,0,1,-0.000803524,-1,0,1,-0.000803524,-1,0,1,2.06954e-07,2.15587e-07,2.06201e-07,36.8944,38.1094,36.7907,1.0006,1.00066,1.00037,0.458559,0.0536897,0,0.461692,1.0001,1.00014,0.999945,1.0005,1.00051,1.00042,0,0,0,0,0,0,0,0,0,0,0,0
Airfoil,41,2.43499e-07,2.53632e-07,2.42618e-07,0.112571,7.11139e-05,7.67514e-05,7.06365e-05,-0.000803524,-1,0,1,-0.000803524,-1,0,1,-0.000803524,-1,0,1,2.06954e-07,2.15587e-07,2.06201e-07,36.8944,38.1094,36.7907,1.0006,1.00066,1.00037,0.458559,0.0536897,1,1.10143,1.0001,1.00014,0.999945,1.0005,1.00051,1.00042,0,0,0,0,0,0,0,0,0,0,0,0
Airfoil,42,2.41971e-07,2.51639e-07,2.41127e-07,0.115196,7.01029e-05,7.54066e-05,6.96535e-05,-0.00486186,-0.999988,0,1,-0.00486186,-0.999988,0,1,-0.00486186,-0.999988,0,1,2.05654e-07,2.1389e-07,2.04933e-07,36.4741,37.6201,36.3763,1.00062,1.00067,1.00039,0.480284,0.0536233,0,0.483268,1.0001,1.00014,0.999953,1.00051,1.00053,1.00043,0,0,0,0,0,0,0,0,0,0,0,0
Airfoil,43,2.41971e-07,2.51639e-07,2.41127e-07,0.115196,7.01029e-05,7.54066e-05,6.96535e-05,-0.00486186,-0.999988,0,1,-0.00486186,-0.999988,0,1,-0.00486186,-0.999988,0,1,2.05654e-07,2.1389e-07,2.04933e-07,36.4741,37.6201,36.3763,1.00062,1.00067,1.00039,0.480284,0.0536233,1,1.11065,1.0001,1.00014,0.999953,1.00051,1.00053,1.00043,0,0,0,0,0,0,0,0,0,0,0,0
Airfoil,44,2.40627e-07,2.49797e-07,2.39817e-07,0.118934,6.89829e-05,7.3963e-05,6.85581e-05,-0.00824477,-0.999966,0,1,-0.00824476,-0.999966,0,1,-0.00824476,-0.999966,0,1,2.0451e-07,2.1232e-07,2.03819e-07,36.0044,37.0835,35.9117,1.00064,1.00069,1.00041,0.502009,0.0534784,0,0.504849,1.00011,1.00015,0.999968,1.00052,1.00054,1.00044,0,0,0,0,0,0,0,0,0,0,0,0
Airfoil,45,2.40627e-07,2.49797e-07,2.39817e-07,0.118934,6.89829e-05,7.3963e-05,6.85581e-05,-0.00824477,-0.999966,0,1,-0.00824476,-0.999966,0,1,-0.00824476,-0.999966,0,1,2.0451e-07,2.1232e-07,2.03819e-07,36.0044,37.0835,35.9117,1.00064,1.00069,1.00041,0.502009,0.0534784,1,1.12021,1.00011,1.00015,0.999968,1.00052,1.00054,1.00044,0,0,0,0,0,0,0,0,0,0,0,0
Airfoil,46,2.39684e-07,2.48315e-07,2.3891e-07,0.122606,6.78938e-05,7.25531e-05,6.74919e-05,-0.0117191,-0.999931,0,1,-0.0117191,-0.999931,0,1,-0.0117191,-0.999931,0,1,2.03706e-07,2.11056e-07,2.03045e-07,35.5223,36.5342,35.4344,1.00066,1.00071,1.00044,0.523733,0.0532651,0,0.526435,1.00012,1.00016,0.999984,1.00053,1.00055,1.00046,0,0,0,0,0,0,0,0,0,0,0,0
Airfoil,47,2.39684e-07,2.48315e-07,2.3891e-07,0.122606,6.78938e-05,7.25531e-05,6.74919e-05,-0.0117191,-0.999931,0,1,-0.0117191,-0.999931,0,1,-0.0117191,-0.999931,0,1,2.03706e-07,2.11056e-07,2.03045e-07,35.5223,36.5342,35.4344,1.00066,1.00071,1.00044,0.523733,0.0532651,1,1.1301,1.00012,1.00016,0.999984,1.00053,1.00055,1.00046,0,0,0,0,0,0,0,0,0,0,0,0
Airfoil,48,2.38598e-07,2.46643e-07,2.37861e-07,0.126478,6.67935e-05,7.11262e-05,6.64146e-05,-0.0159389,-0.999873,0,1,-0.0159389,-0.999873,0,1,-0.0159389,-0.999873,0,1,2.02781e-07,2.09631e-07,2.02151e-07,35.0184,35.9614,34.9354,1.00068,1.00073,1.00047,0.545456,0.0529692,0,0.548022,1.00013,1.00017,0.999998,1.00054,1.00056,1.00047,0,0,0,0,0,0,0,0,0,0,0,0
Airfoil,49,2.38598e-07,2.46643e-07,2.37861e-07,0.126478,6.67935e-05,7.11262e-05,6.64146e-05,-0.0159389,-0.999873,0,1,-0.0159389,-0.999873,0,1,-0.0159389,-0.999873,0,1,2.02781e-07,2.09631e-07,2.02151e-07,35.0184,35.9614,34.9354,1.00068,1.00073,1.00047,0.545456,0.0529692,1,1.14032,1.00013,1.00017,0.999998,1.00054,1.00056,1.00047,0,0,0,0,0,0,0,0,0,0,0,0
Airfoil,50,2.36849e-07,2.44262e-07,2.36155e-07,0.13184,6.55354e-05,6.95314e-05,6.51812e-05,-0.0203983,-0.999792,0,1,-0.0203983,-0.999792,0,1,-0.0203983,-0.999792,0,1,2.01291e-07,2.07601e-07,2.00698e-07,34.458,35.3301,34.3802,1.00071,1.00076,1.0005,0.567178,0.0525726,0,0.569609,1.00015,1.00019,1.00002,1.00055,1.00057,1.00048,0,0,0,0,0,0,0,0,0,0,0,0
Airfoil,51,2.36849e-07,2.44262e-07,2.36155e-07,0.13184,6.55354e-05,6.95314e-05,6.51812e-05,-0.0203983,-0.999792,0,1,-0.0203983,-0.999792,0,1,-0.0203983,-0.999792,0,1,2.01291e-07,2.07601e-07,2.00698e-07,34.458,35.3301,34.3802,1.00071,1.00076,1.0005,0.567178,0.0525726,1,1.15085,1.00015,1.00019,1.00002,1.00055,1.00057,1.00048,0,0,0,0,0,0,0,0,0,0,0,0
Airfoil,52,2.34596e-07,2.4134e-07,2.33952e-07,0.139317,6.4077e-05,6.77314e-05,6.37493e-05,-0.0243017,-0.999704,0,1,-0.0243017,-0.999705,0,1,-0.0243017,-0.999705,0,1,1.99372e-07,2.05111e-07,1.98821e-07,33.8345,34.6351,33.7623,1.00075,1.0008,1.00055,0.588898,0.0520829,0,0.591197,1.00018,1.00021,1.00005,1.00057,1.00058,1.0005,0,0,0,0,0,0,0,0,0,0,0,0
Airfoil,53,2.34596e-07,2.4134e-07,2.33952e-07,0.139317,6.4077e-05,6.77314e-05,6.37493e-05,-0.0243017,-0.999704,0,1,-0.0243017,-0.999705,0,1,-0.0243017,-0.999705,0,1,1.99372e-07,2.05111e-07,1.98821e-07,33.8345,34.6351,33.7623,1.00075,1.0008,1.00055,0.588898,0.0520829,1,1.16169,1.00018,1.00021,1.00005,1.00057,1.00058,1.0005,0,0,0,0,0,0,0,0,0,0,0,0
Airfoil,54,2.32322e-07,2.38371e-07,2.31732e-07,0.147817,6.25157e-05,6.58331e-05,6.22156e-05,-0.0277198,-0.999616,0,1,-0.0277198,-0.999616,0,1,-0.0277198,-0.999616,0,1,1.97432e-07,2.02578e-07,1.96928e-07,33.174,33.9039,33.1076,1.00079,1.00084,1.0006,0.610616,0.0515166,0,0.612785,1.00021,1.00024,1.00008,1.00058,1.0006,1.00052,0,0,0,0,0,0,0,0,0,0,0,0
Airfoil,55,2.32322e-07,2.38371e-07,2.31732e-07,0.147817,6.25157e-05,6.58331e-05,6.22156e-05,-0.0277198,-0.999616,0,1,-0.0277198,-0.999616,0,1,-0.0277198,-0.999616,0,1,1.97432e-07,2.02578e-07,1.96928e-07,33.174,33.9039,33.1076,1.00079,1.00084,1.0006,0.610616,0.0515166,1,1.17282,1.00021,1.00024,1.00008,1.00058,1.0006,1.00052,0,0,0,0,0,0,0,0,0,0,0,0
Airfoil,56,2.2993e-07,2.35259e-07,2.29392e-07,0.156673,6.09008e-05,6.38882e-05,6.06287e-05,-0.0315719,-0.999502,0,1,-0.0315718,-0.999502,0,1,-0.0315718,-0.999502,0,1,1.95393e-07,1.99925e-07,1.94934e-07,32.4855,33.1457,32.425,1.00084,1.00089,1.00066,0.632332,0.0508785,0,0.634375,1.00024,1.00028,1.00012,1.0006,1.00061,1.00053,0,0,0,0,0,0,0,0,0,0,0,0
Airfoil,57,2.2993e-07,2.35259e-07,2.29392e-07,0.156673,6.09008e-05,6.38882e-05,6.06287e-05,-0.0315719,-0.999502,0,1,-0.0315718,-0.999502,0,1,-0.0315718,-0.999502,0,1,1.95393e-07,1.99925e-07,1.94934e-07,32.4855,33.1457,32.425,1.00084,1.00089,1.00066,0.632332,0.0508785,1,1.18424,1.00024,1.00028,1.00012,1.0006,1.00061,1.00053,0,0,0,0,0,0,0,0,0,0,0,0
Airfoil,58,2.26518e-07,2.31087e-07,2.26032e-07,0.166798,5.90929e-05,6.17497e-05,5.88491e-05,-0.0364514,-0.999336,0,1,-0.0364514,-0.999336,0,1,-0.0364514,-0.999336,0,1,1.92487e-07,1.9637e-07,1.92072e-07,31.7319,32.3223,31.6774,1.00089,1.00094,1.00072,0.654045,0.0501448,0,0.655964,1.00028,1.00031,1.00016,1.00061,1.00063,1.00055,0,0,0,0,0,0,0,0,0,0,0,0
Airfoil,59,2.26518e-07,2.31087e-07,2.26032e-07,0.166798,5.90929e-05,6.17497e-05,5.88491e-05,-0.0364514,-0.999336,0,1,-0.0364514,-0.999336,0,1,-0.0364514,-0.999336,0,1,1.92487e-07,1.9637e-07,1.92072e-07,31.7319,32.3223,31.6774,1.00089,1.00094,1.00072,0.654045,0.0501448,1,1.19595,1.00028,1.00031,1.00016,1.00061,1.00063,1.00055,0,0,0,0,0,0,0,0,0,0,0,0
Airfoil,60,2.20909e-07,2.24663e-07,2.20481e-07,0.179703,5.68294e-05,5.91466e-05,5.6615e-05,-0.0421384,-0.999112,0,1,-0.0421384,-0.999112,0,1,-0.0421384,-0.999112,0,1,1.87712e-07,1.909e-07,1.87347e-07,30.8508,31.3701,30.8026,1.00096,1.00101,1.00079,0.675753,0.0492947,0,0.677549,1.00033,1.00036,1.00022,1.00064,1.00065,1.00058,0,0,0,0,0,0,0,0,0,0,0,0
Airfoil,61,2.20909e-07,2.24663e-07,2.20481e-07,0.179703,5.68294e-05,5.91466e-05,5.6615e-05,-0.0421384,-0.999112,0,1,-0.0421384,-0.999112,0,1,-0.0421384,-0.999112,0,1,1.87712e-07,1.909e-07,1.87347e-07,30.8508,31.3701,30.8026,1.00096,1.00101,1.00079,0.675753,0.0492947,1,1.20792,1.00033,1.00036,1.00022,1.00064,1.00065,1.00058,0,0,0,0,0,0,0,0,0,0,0,0
Airfoil,62,2.11857e-07,2.14744e-07,2.11492e-07,0.196548,5.38092e-05,5.57755e-05,5.3623e-05,-0.0479875,-0.998848,0,1,-0.0479875,-0.998848,0,1,-0.0479875,-0.998848,0,1,1.80009e-07,1.82458e-07,1.79697e-07,29.775,30.2218,29.7326,1.00105,1.0011,1.00089,0.697456,0.0483139,0,0.699127,1.00039,1.00042,1.00028,1.00066,1.00068,1.00061,0,0,0,0,0,0,0,0,0,0,0,0
Airfoil,63,2.11857e-07,2.14744e-07,2.11492e-07,0.196548,5.38092e-05,5.57755e-05,5.3623e-05,-0.0479875,-0.998848,0,1,-0.0479875,-0.998848,0,1,-0.0479875,-0.998848,0,1,1.80009e-07,1.82458e-07,1.79697e-07,29.775,30.2218,29.7326,1.00105,1.0011,1.00089,0.697456,0.0483139,1,1.22016,1.00039,1.00042,1.00028,1.00066,1.00068,1.00061,0,0,0,0,0,0,0,0,0,0,0,0
Airfoil,64,1.98967e-07,2.0096e-07,1.98667e-07,0.217998,4.99197e-05,5.15381e-05,4.97616e-05,-0.0516893,-0.998663,0,1,-0.0516893,-0.998663,0,1,-0.0516893,-0.998663,0,1,1.69043e-07,1.70732e-07,1.68786e-07,28.4966,28.8725,28.4598,1.00117,1.00122,1.00101,0.719153,0.0472096,0,0.720701,1.00047,1.00051,1.00037,1.0007,1.00071,1.00064,0,0,0,0,0,0,0,0,0,0,0,0
Airfoil,65,1.98967e-07,2.0096e-07,1.98667e-07,0.217998,4.99197e-05,5.15381e-05,4.97616e-05,-0.0516893,-0.998663,0,1,-0.0516893,-0.998663,0,1,-0.0516893,-0.998663,0,1,1.69043e-07,1.70732e-07,1.68786e-07,28.4966,28.8725,28.4598,1.00117,1.00122,1.00101,0.719153,0.0472096,1,1.23264,1.00047,1.00051,1.00037,1.0007,1.00071,1.00064,0,0,0,0,0,0,0,0,0,0,0,0
Airfoil,66,1.84027e-07,1.85174e-07,1.8379e-07,0.242653,4.55547e-05,4.68653e-05,4.54225e-05,-0.0502386,-0.998737,0,1,-0.0502386,-0.998737,0,1,-0.0502386,-0.998737,0,1,1.56334e-07,1.57315e-07,1.56132e-07,27.1414,27.4549,27.1097,1.0013,1.00135,1.00115,0.740849,0.046068,0,0.742279,1.00057,1.00061,1.00047,1.00073,1.00074,1.00067,0,0,0,0,0,0,0,0,0,0,0,0
Airfoil,67,1.84027e-07,1.85174e-07,1.8379e-07,0.242653,4.55547e-05,4.68653e-05,4.54225e-05,-0.0502386,-0.998737,0,1,-0.0502386,-0.998737,0,1,-0.0502386,-0.998737,0,1,1.56334e-07,1.57315e-07,1.56132e-07,27.1414,27.4549,27.1097,1.0013,1.00135,1.00115,0.740849,0.046068,1,1.24538,1.00057,1.00061,1.00047,1.00073,1.00074,1.00067,0,0,0,0,0,0,0,0,0,0,0,0
Airfoil,68,1.70069e-07,1.70751e-07,1.69885e-07,0.267219,4.14697e-05,4.25528e-05,4.13581e-05,-0.0429283,-0.999078,0,1,-0.0429283,-0.999078,0,1,-0.0429283,-0.999078,0,1,1.4446e-07,1.45052e-07,1.44304e-07,25.9164,26.1842,25.8888,1.00143,1.00148,1.00129,0.762549,0.0450267,0,0.763877,1.00068,1.00073,1.00058,1.00075,1.00076,1.0007,0,0,0,0,0,0,0,0,0,0,0,0
Airfoil,69,1.70069e-07,1.70751e-07,1.69885e-07,0.267219,4.14697e-05,4.25528e-05,4.13581e-05,-0.0429283,-0.999078,0,1,-0.0429283,-0.999078,0,1,-0.0429283,-0.999078,0,1,1.4446e-07,1.45052e-07,1.44304e-07,25.9164,26.1842,25.8888,1.00143,1.00148,1.00129,0.762549,0.0450267,1,1.25838,1.00068,1.00073,1.00058,1.00075,1.00076,1.0007,0,0,0,0,0,0,0,0,0,0,0,0
Airfoil,70,1.59231e-07,1.59579e-07,1.59055e-07,0.289136,3.82849e-05,3.92374e-05,3.81871e-05,-0.030028,-0.999549,0,1,-0.030028,-0.999549,0,1,-0.030028,-0.999549,0,1,1.35241e-07,1.35535e-07,1.35087e-07,25.0066,25.2492,24.9817,1.00155,1.0016,1.00141,0.784258,0.0442028,0,0.785503,1.00078,1.00083,1.00068,1.00077,1.00078,1.00072,0,0,0,0,0,0,0,0,0,0,0,0
Airfoil,71,1.59231e-07,1.59579e-07,1.59055e-07,0.289136,3.82849e-05,3.92374e-05,3.81871e-05,-0.030028,-0.999549,0,1,-0.030028,-0.999549,0,1,-0.030028,-0.999549,0,1,1.35241e-07,1.35535e-07,1.35087e-07,25.0066,25.2492,24.9817,1.00155,1.0016,1.00141,0.784258,0.0442028,1,1.27162,1.00078,1.00083,1.00068,1.00077,1.00078,1.00072,0,0,0,0,0,0,0,0,0,0,0,0
Airfoil,72,1.53652e-07,1.53954e-07,1.53389e-07,0.307583,3.65598e-05,3.74748e-05,3.64682e-05,-0.0103266,-0.999947,0,1,-0.0103266,-0.999947,0,1,-0.0103266,-0.999947,0,1,1.30491e-07,1.30747e-07,1.3026e-07,24.6224,24.8601,24.5986,1.00165,1.00171,1.00151,0.805978,0.043722,0,0.807163,1.00087,1.00093,1.00077,1.00078,1.00079,1.00073,0,0,0,0,0,0,0,0,0,0,0,0
Airfoil,73,1.53652e-07,1.53954e-07,1.53389e-07,0.307583,3.65598e-05,3.74748e-05,3.64682e-05,-0.0103266,-0.999947,0,1,-0.0103266,-0.999947,0,1,-0.0103266,-0.999947,0,1,1.30491e-07,1.30747e-07,1.3026e-07,24.6224,24.8601,24.5986,1.00165,1.00171,1.00151,0.805978,0.043722,1,1.28511,1.00087,1.00093,1.00077,1.00078,1.00079,1.00073,0,0,0,0,0,0,0,0,0,0,0,0
Airfoil,74,1.53366e-07,1.53649e-07,1.53036e-07,0.320489,3.62992e-05,3.72277e-05,3.62087e-05,0.0128955,-0.999917,0,1,0.0128955,-0.999917,0,1,0.0128955,-0.999917,0,1,1.3024e-07,1.30478e-07,1.29951e-07,24.771,25.0143,24.7473,1.00172,1.00179,1.00158,0.827702,0.0437541,0,0.828858,1.00093,1.00099,1.00084,1.00078,1.0008,1.00074,0,0,0,0,0,0,0,0,0,0,0,0
Airfoil,75,1.53366e-07,1.53649e-07,1.53036e-07,0.320489,3.62992e-05,3.72277e-05,3.62087e-05,0.0128955,-0.999917,0,1,0.0128955,-0.999917,0,1,0.0128955,-0.999917,0,1,1.3024e-07,1.30478e-07,1.29951e-07,24.771,25.0143,24.7473,1.00172,1.00179,1.00158,0.827702,0.0437541,1,1.29885,1.00093,1.00099,1.00084,1.00078,1.0008,1.00074,0,0,0,0,0,0,0,0,0,0,0,0
Airfoil,76,1.56468e-07,1.56745e-07,1.5613e-07,0.32732,3.7229e-05,3.81715e-05,3.71375e-05,0.0393664,-0.999225,0,1,0.0393663,-0.999225,0,1,0.0393663,-0.999225,0,1,1.3287e-07,1.33103e-07,1.32574e-07,25.4316,25.6786,25.4076,1.00175,1.00183,1.00162,0.84942,0.0442823,0,0.850574,1.00097,1.00103,1.00088,1.00078,1.0008,1.00074,0,0,0,0,0,0,0,0,0,0,0,0
Airfoil,77,1.56468e-07,1.56745e-07,1.5613e-07,0.32732,3.7229e-05,3.81715e-05,3.71375e-05,0.0393664,-0.999225,0,1,0.0393663,-0.999225,0,1,0.0393663,-0.999225,0,1,1.3287e-07,1.33103e-07,1.32574e-07,25.4316,25.6786,25.4076,1.00175,1.00183,1.00162,0.84942,0.0442823,1,1.31281,1.00097,1.00103,1.00088,1.00078,1.0008,1.00074,0,0,0,0,0,0,0,0,0,0,0,0
Airfoil,78,1.62344e-07,1.62624e-07,1.62007e-07,0.327476,3.90688e-05,3.99985e-05,3.89762e-05,0.0672251,-0.997738,0,1,0.0672251,-0.997738,0,1,0.0672251,-0.997738,0,1,1.37858e-07,1.38094e-07,1.37562e-07,26.527,26.7696,26.5028,1.00175,1.00183,1.00162,0.871112,0.0454643,0,0.872298,1.00098,1.00104,1.00089,1.00078,1.00079,1.00073,0,0,0,0,0,0,0,0,0,0,0,0
Airfoil,79,1.62344e-07,1.62624e-07,1.62007e-07,0.327476,3.90688e-05,3.99985e-05,3.89762e-05,0.0672251,-0.997738,0,1,0.0672251,-0.997738,0,1,0.0672251,-0.997738,0,1,1.37858e-07,1.38094e-07,1.37562e-07,26.527,26.7696,26.5028,1.00175,1.00183,1.00162,0.871112,0.0454643,1,1.32699,1.00098,1.00104,1.00089,1.00078,1.00079,1.00073,0,0,0,0,0,0,0,0,0,0,0,0
Airfoil,80,1.69593e-07,1.69879e-07,1.69232e-07,0.320066,4.14239e-05,4.22958e-05,4.13316e-05,0.0930547,-0.995661,0,1,0.0930547,-0.995661,0,1,0.0930547,-0.995661,0,1,1.44017e-07,1.44259e-07,1.43701e-07,27.9201,28.1463,27.8961,1.00171,1.0018,1.00158,0.892767,0.0472029,0,0.894014,1.00095,1.00101,1.00086,1.00076,1.00078,1.00072,0,0,0,0,0,0,0,0,0,0,0,0
Airfoil,81,1.69593e-07,1.69879e-07,1.69232e-07,0.320066,4.14239e-05,4.22958e-05,4.13316e-05,0.0930547,-0.995661,0,1,0.0930547,-0.995661,0,1,0.0930547,-0.995661,0,1,1.44017e-07,1.44259e-07,1.43701e-07,27.9201,28.1463,27.8961,1.00171,1.0018,1.00158,0.892767,0.0472029,1,1.34137,1.00095,1.00101,1.00086,1.00076,1.00078,1.00072,0,0,0,0,0,0,0,0,0,0,0,0
Airfoil,82,1.77492e-07,1.77786e-07,1.77064e-07,0.30587,4.4474e-05,4.52512e-05,4.43828e-05,0.119428,-0.992843,0,1,0.119428,-0.992843,0,1,0.119428,-0.992843,0,1,1.50732e-07,1.5098e-07,1.5036e-07,29.7466,29.9469,29.7231,1.00164,1.00172,1.00151,0.914369,0.0495071,0,0.915708,1.0009,1.00096,1.00082,1.00073,1.00076,1.00069,0,0,0,0,0,0,0,0,0,0,0,0
Airfoil,83,1.77492e-07,1.77786e-07,1.77064e-07,0.30587,4.4474e-05,4.52512e-05,4.43828e-05,0.119428,-0.992843,0,1,0.119428,-0.992843,0,1,0.119428,-0.992843,0,1,1.50732e-07,1.5098e-07,1.5036e-07,29.7466,29.9469,29.7231,1.00164,1.00172,1.00151,0.914369,0.0495071,1,1.35592,1.0009,1.00096,1.00082,1.00073,1.00076,1.00069,0,0,0,0,0,0,0,0,0,0,0,0