# Force and moment coefficients
# dragDir       : (1.00000000e+00 0.00000000e+00 0.00000000e+00)
# sideDir       : (0.00000000e+00 0.00000000e+00 -1.00000000e+00)
# liftDir       : (0.00000000e+00 1.00000000e+00 0.00000000e+00)
# rollAxis      : (1.00000000e+00 0.00000000e+00 0.00000000e+00)
# pitchAxis     : (0.00000000e+00 0.00000000e+00 -1.00000000e+00)
# yawAxis       : (0.00000000e+00 1.00000000e+00 0.00000000e+00)
# magUInf       : 1.03413075e-01
# lRef          : 1.00000000e+00
# Aref          : 1.00000000e+00
# CofR          : (0.00000000e+00 0.00000000e+00 0.00000000e+00)
#
# Time          	Cd              	Cd(f)           	Cd(r)           	Cl              	Cl(f)           	Cl(r)           	CmPitch         	CmRoll          	CmYaw           	Cs              	Cs(f)           	Cs(r)           
1               	3.62146721e+01	-5.40539762e+01	9.02686483e+01	-1.44322624e+02	4.05251566e+00	-1.48375140e+02	7.62138279e+01	-7.21613122e+01	-1.81073361e+01	-2.75826298e-20	-1.81073361e+01	1.81073361e+01
2               	3.11283935e+01	-4.05707953e+01	7.16991887e+01	-1.12269984e+02	1.16112311e+01	-1.23881215e+02	6.77462231e+01	-5.61349920e+01	-1.55641967e+01	-3.51635309e-20	-1.55641967e+01	1.55641967e+01
3               	1.67768433e+00	1.22549602e+01	-1.05772759e+01	2.28322362e+01	4.98474451e+00	1.78474916e+01	-6.43137357e+00	1.14161181e+01	-8.38842166e-01	-2.64814631e-20	-8.38842166e-01	8.38842166e-01
4               	-7.85856786e+00	1.94883452e+01	-2.73469130e+01	4.68352582e+01	5.33154848e-02	4.67819427e+01	-2.33643136e+01	2.34176291e+01	3.92928393e+00	-1.74870520e-20	3.92928393e+00	-3.92928393e+00
5               	-4.05733803e+00	3.59844282e+00	-7.65578085e+00	1.12542237e+01	-1.46840048e+00	1.27226242e+01	-7.09551232e+00	5.62711184e+00	2.02866902e+00	-1.45987025e-20	2.02866902e+00	-2.02866902e+00
6               	2.64010434e-01	-6.31112330e+00	6.57513373e+00	-1.28862570e+01	-1.47872056e+00	-1.14075365e+01	4.96440795e+00	-6.44312851e+00	-1.32005217e-01	-1.60695001e-20	-1.32005217e-01	1.32005217e-01
7               	1.24462978e+00	-5.86980235e+00	7.11443213e+00	-1.29842345e+01	-1.12091328e+00	-1.18633212e+01	5.37120396e+00	-6.49211724e+00	-6.22314888e-01	-1.82032464e-20	-6.22314888e-01	6.22314888e-01
8               	6.31529011e-01	-1.33512488e+00	1.96665389e+00	-3.30177878e+00	-3.65304924e-01	-2.93647385e+00	1.28558447e+00	-1.65088939e+00	-3.15764505e-01	-1.90910327e-20	-3.15764505e-01	3.15764505e-01
9               	1.42968557e-01	1.35421863e+00	-1.21125008e+00	2.56546871e+00	2.18794985e-01	2.34667373e+00	-1.06393937e+00	1.28273436e+00	-7.14842784e-02	-1.88645332e-20	-7.14842784e-02	7.14842784e-02
10              	4.63312863e-02	1.57045302e+00	-1.52412173e+00	3.09457475e+00	3.56239923e-01	2.73833483e+00	-1.19104745e+00	1.54728738e+00	-2.31656431e-02	-1.84367121e-20	-2.31656431e-02	2.31656431e-02
11              	9.68609492e-02	4.75044146e-01	-3.78183196e-01	8.53227342e-01	1.03321998e-01	7.49905343e-01	-3.23291673e-01	4.26613671e-01	-4.84304746e-02	-1.81914384e-20	-4.84304746e-02	4.84304746e-02
12              	9.51019304e-02	-4.31296031e-01	5.26397961e-01	-9.57693992e-01	-1.76706968e-01	-7.80987024e-01	3.02140028e-01	-4.78846996e-01	-4.75509652e-02	-1.81302323e-20	-4.75509652e-02	4.75509652e-02
13              	6.54809592e-02	-7.73353805e-01	8.38834764e-01	-1.61218857e+00	-3.09931398e-01	-1.30225717e+00	4.96162887e-01	-8.06094285e-01	-3.27404796e-02	-1.80560609e-20	-3.27404796e-02	3.27404796e-02
14              	5.00581434e-02	-6.35255921e-01	6.85314064e-01	-1.32056999e+00	-2.83366929e-01	-1.03720306e+00	3.76918064e-01	-6.60284993e-01	-2.50290717e-02	-1.79483610e-20	-2.50290717e-02	2.50290717e-02
15              	6.34190874e-02	-3.60517985e-01	4.23937072e-01	-7.84455057e-01	-1.96058509e-01	-5.88396548e-01	1.96169019e-01	-3.92227529e-01	-3.17095437e-02	-1.78404717e-20	-3.17095437e-02	3.17095437e-02
16              	8.59830154e-02	-1.76451541e-01	2.62434556e-01	-4.38886097e-01	-1.25727093e-01	-3.13159004e-01	9.37159558e-02	-2.19443049e-01	-4.29915077e-02	-1.77828340e-20	-4.29915077e-02	4.29915077e-02
17              	9.90927915e-02	-1.39159600e-01	2.38252391e-01	-3.77411991e-01	-1.03888053e-01	-2.73523938e-01	8.48179421e-02	-1.88705996e-01	-4.95463958e-02	-1.77308154e-20	-4.95463958e-02	4.95463958e-02
18              	9.62658099e-02	-1.84459525e-01	2.80725335e-01	-4.65184860e-01	-1.11812240e-01	-3.53372620e-01	1.20780190e-01	-2.32592430e-01	-4.81329049e-02	-1.76828542e-20	-4.81329049e-02	4.81329049e-02
19              	8.49365309e-02	-2.50469092e-01	3.35405623e-01	-5.85874714e-01	-1.33684995e-01	-4.52189719e-01	1.59252362e-01	-2.92937357e-01	-4.24682654e-02	-1.76475022e-20	-4.24682654e-02	4.24682654e-02
20              	7.28801370e-02	-2.95988530e-01	3.68868667e-01	-6.64857198e-01	-1.50943614e-01	-5.13913583e-01	1.81484984e-01	-3.32428599e-01	-3.64400685e-02	-1.76946942e-20	-3.64400685e-02	3.64400685e-02
21              	6.81338592e-02	-3.10679783e-01	3.78813642e-01	-6.89493425e-01	-1.56396204e-01	-5.33097221e-01	1.88350509e-01	-3.44746713e-01	-3.40669296e-02	-1.77222146e-20	-3.40669296e-02	3.40669296e-02
22              	6.87088180e-02	-3.08319755e-01	3.77028573e-01	-6.85348328e-01	-1.53356198e-01	-5.31992130e-01	1.89317966e-01	-3.42674164e-01	-3.43544090e-02	-1.77259844e-20	-3.43544090e-02	3.43544090e-02
23              	7.31738776e-02	-2.93825826e-01	3.66999704e-01	-6.60825530e-01	-1.44031231e-01	-5.16794299e-01	1.86381534e-01	-3.30412765e-01	-3.65869388e-02	-1.77091127e-20	-3.65869388e-02	3.65869388e-02
24              	7.48730361e-02	-2.82316529e-01	3.57189565e-01	-6.39506093e-01	-1.37828067e-01	-5.01678027e-01	1.81924980e-01	-3.19753047e-01	-3.74365181e-02	-1.77236978e-20	-3.74365181e-02	3.74365181e-02
25              	7.40646404e-02	-2.74103668e-01	3.48168308e-01	-6.22271976e-01	-1.35762734e-01	-4.86509243e-01	1.75373254e-01	-3.11135988e-01	-3.70323202e-02	-1.77348636e-20	-3.70323202e-02	3.70323202e-02
26              	7.16423786e-02	-2.72899361e-01	3.44541739e-01	-6.17441100e-01	-1.36624732e-01	-4.80816367e-01	1.72095817e-01	-3.08720550e-01	-3.58211893e-02	-1.77245192e-20	-3.58211893e-02	3.58211893e-02
27              	6.86995868e-02	-2.77222124e-01	3.45921711e-01	-6.23143836e-01	-1.38917494e-01	-4.84226342e-01	1.72654424e-01	-3.11571918e-01	-3.43497934e-02	-1.76840067e-20	-3.43497934e-02	3.43497934e-02
28              	6.67102925e-02	-2.84933280e-01	3.51643572e-01	-6.36576852e-01	-1.41185526e-01	-4.95391326e-01	1.77102900e-01	-3.18288426e-01	-3.33551462e-02	-1.76144764e-20	-3.33551462e-02	3.33551462e-02
29              	6.59877870e-02	-2.89960022e-01	3.55947809e-01	-6.45907832e-01	-1.41625728e-01	-5.04282104e-01	1.81328188e-01	-3.22953916e-01	-3.29938935e-02	-1.75561680e-20	-3.29938935e-02	3.29938935e-02
30              	6.57265468e-02	-2.91298801e-01	3.57025348e-01	-6.48324149e-01	-1.40812214e-01	-5.07511935e-01	1.83349860e-01	-3.24162075e-01	-3.28632734e-02	-1.75164181e-20	-3.28632734e-02	3.28632734e-02
31              	6.59691501e-02	-2.91118325e-01	3.57087475e-01	-6.48205801e-01	-1.38894106e-01	-5.09311694e-01	1.85208794e-01	-3.24102900e-01	-3.29845750e-02	-1.74773082e-20	-3.29845750e-02	3.29845750e-02
32              	6.59336312e-02	-2.90635779e-01	3.56569410e-01	-6.47205189e-01	-1.37191947e-01	-5.10013242e-01	1.86410647e-01	-3.23602595e-01	-3.29668156e-02	-1.74296059e-20	-3.29668156e-02	3.29668156e-02
33              	6.55399209e-02	-2.91103279e-01	3.56643200e-01	-6.47746480e-01	-1.35891180e-01	-5.11855299e-01	1.87982060e-01	-3.23873240e-01	-3.27699604e-02	-1.75267413e-20	-3.27699604e-02	3.27699604e-02
34              	6.51727125e-02	-2.93072312e-01	3.58245024e-01	-6.51317336e-01	-1.34713655e-01	-5.16603681e-01	1.90945013e-01	-3.25658668e-01	-3.25863562e-02	-1.76160063e-20	-3.25863562e-02	3.25863562e-02
35              	6.49413028e-02	-2.96665082e-01	3.61606385e-01	-6.58271467e-01	-1.33548512e-01	-5.24722955e-01	1.95587221e-01	-3.29135733e-01	-3.24706514e-02	-1.76913732e-20	-3.24706514e-02	3.24706514e-02
36              	6.50196398e-02	-3.01309927e-01	3.66329567e-01	-6.67639494e-01	-1.32672301e-01	-5.34967193e-01	2.01147446e-01	-3.33819747e-01	-3.25098199e-02	-1.77556791e-20	-3.25098199e-02	3.25098199e-02
37              	6.44754313e-02	-3.02109255e-01	3.66584687e-01	-6.68693942e-01	-1.32492222e-01	-5.36201720e-01	2.01854749e-01	-3.34346971e-01	-3.22377156e-02	-1.78163209e-20	-3.22377156e-02	3.22377156e-02
38              	6.38706201e-02	-3.02568027e-01	3.66438647e-01	-6.69006674e-01	-1.32476205e-01	-5.36530469e-01	2.02027132e-01	-3.34503337e-01	-3.19353101e-02	-1.78663634e-20	-3.19353101e-02	3.19353101e-02
39              	6.33105001e-02	-3.02904106e-01	3.66214606e-01	-6.69118712e-01	-1.32334236e-01	-5.36784476e-01	2.02225120e-01	-3.34559356e-01	-3.16552501e-02	-1.79413608e-20	-3.16552501e-02	3.16552501e-02
40              	6.23988535e-02	-3.01485715e-01	3.63884568e-01	-6.65370283e-01	-1.32634831e-01	-5.32735452e-01	2.00050311e-01	-3.32685141e-01	-3.11994268e-02	-1.81387171e-20	-3.11994268e-02	3.11994268e-02
41              	6.18523754e-02	-3.01138360e-01	3.62990736e-01	-6.64129096e-01	-1.32407494e-01	-5.31721602e-01	1.99657054e-01	-3.32064548e-01	-3.09261877e-02	-1.82896764e-20	-3.09261877e-02	3.09261877e-02
42              	6.16058613e-02	-3.01830381e-01	3.63436243e-01	-6.65266624e-01	-1.31706899e-01	-5.33559725e-01	2.00926413e-01	-3.32633312e-01	-3.08029307e-02	-1.84406405e-20	-3.08029307e-02	3.08029307e-02
43              	6.15663078e-02	-3.03441736e-01	3.65008043e-01	-6.68449779e-01	-1.30821505e-01	-5.37628274e-01	2.03403385e-01	-3.34224889e-01	-3.07831539e-02	-1.85880691e-20	-3.07831539e-02	3.07831539e-02
44              	6.16070996e-02	-3.05571095e-01	3.67178194e-01	-6.72749289e-01	-1.29981389e-01	-5.42767900e-01	2.06393256e-01	-3.36374645e-01	-3.08035498e-02	-1.87059018e-20	-3.08035498e-02	3.08035498e-02
45              	6.16723862e-02	-3.07845047e-01	3.69517433e-01	-6.77362480e-01	-1.29166734e-01	-5.48195745e-01	2.09514506e-01	-3.38681240e-01	-3.08361931e-02	-1.88097773e-20	-3.08361931e-02	3.08361931e-02
46              	6.17293713e-02	-3.09911879e-01	3.71641250e-01	-6.81553129e-01	-1.28374409e-01	-5.53178721e-01	2.12402156e-01	-3.40776565e-01	-3.08646857e-02	-1.88519098e-20	-3.08646857e-02	3.08646857e-02
47              	6.16898020e-02	-3.11316899e-01	3.73006701e-01	-6.84323599e-01	-1.27776811e-01	-5.56546788e-01	2.14384989e-01	-3.42161800e-01	-3.08449010e-02	-1.87774242e-20	-3.08449010e-02	3.08449010e-02
48              	6.14106301e-02	-3.11609838e-01	3.73020468e-01	-6.84630307e-01	-1.27634261e-01	-5.56996045e-01	2.14680892e-01	-3.42315153e-01	-3.07053151e-02	-1.87167458e-20	-3.07053151e-02	3.07053151e-02
49              	6.10594561e-02	-3.11717672e-01	3.72777128e-01	-6.84494800e-01	-1.27516124e-01	-5.56978677e-01	2.14731277e-01	-3.42247400e-01	-3.05297281e-02	-1.86903914e-20	-3.05297281e-02	3.05297281e-02
50              	6.06055280e-02	-3.11449211e-01	3.72054739e-01	-6.83503950e-01	-1.27156349e-01	-5.56347601e-01	2.14595626e-01	-3.41751975e-01	-3.03027640e-02	-1.86729940e-20	-3.03027640e-02	3.03027640e-02
51              	6.03829905e-02	-3.11854445e-01	3.72237435e-01	-6.84091880e-01	-1.26798150e-01	-5.57293729e-01	2.15247790e-01	-3.42045940e-01	-3.01914953e-02	-1.86611026e-20	-3.01914953e-02	3.01914953e-02
52              	6.02910149e-02	-3.12754366e-01	3.73045380e-01	-6.85799746e-01	-1.26042575e-01	-5.59757171e-01	2.16857298e-01	-3.42899873e-01	-3.01455074e-02	-1.86481471e-20	-3.01455074e-02	3.01455074e-02
53              	6.02975618e-02	-3.13939694e-01	3.74237256e-01	-6.88176949e-01	-1.25427708e-01	-5.62749241e-01	2.18660766e-01	-3.44088475e-01	-3.01487809e-02	-1.86376150e-20	-3.01487809e-02	3.01487809e-02
54              	6.01414905e-02	-3.14601793e-01	3.74743283e-01	-6.89345076e-01	-1.25194812e-01	-5.64150264e-01	2.19477726e-01	-3.44672538e-01	-3.00707452e-02	-1.86096744e-20	-3.00707452e-02	3.00707452e-02
55              	6.03057927e-02	-3.16468091e-01	3.76773884e-01	-6.93241975e-01	-1.24650016e-01	-5.68591958e-01	2.21970971e-01	-3.46620987e-01	-3.01528963e-02	-1.85700882e-20	-3.01528963e-02	3.01528963e-02
56              	6.03032184e-02	-3.17682680e-01	3.77985898e-01	-6.95668578e-01	-1.24212707e-01	-5.71455870e-01	2.23621582e-01	-3.47834289e-01	-3.01516092e-02	-1.85201161e-20	-3.01516092e-02	3.01516092e-02
57              	6.01371449e-02	-3.18204274e-01	3.78341419e-01	-6.96545693e-01	-1.23990777e-01	-5.72554916e-01	2.24282070e-01	-3.48272847e-01	-3.00685725e-02	-1.84657886e-20	-3.00685725e-02	3.00685725e-02
58              	5.99043279e-02	-3.18423545e-01	3.78327873e-01	-6.96751418e-01	-1.23912757e-01	-5.72838661e-01	2.24462952e-01	-3.48375709e-01	-2.99521640e-02	-1.84129405e-20	-2.99521640e-02	2.99521640e-02
59              	5.95167104e-02	-3.18121947e-01	3.77638657e-01	-6.95760604e-01	-1.23870420e-01	-5.71890185e-01	2.24009882e-01	-3.47880302e-01	-2.97583552e-02	-1.83683837e-20	-2.97583552e-02	2.97583552e-02
60              	5.91399185e-02	-3.17676947e-01	3.76816865e-01	-6.94493812e-01	-1.23908095e-01	-5.70585717e-01	2.23338811e-01	-3.47246906e-01	-2.95699593e-02	-1.83430191e-20	-2.95699593e-02	2.95699593e-02
61              	5.87996724e-02	-3.17493630e-01	3.76293303e-01	-6.93786933e-01	-1.23843526e-01	-5.69943407e-01	2.23049940e-01	-3.46893466e-01	-2.93998362e-02	-1.83307985e-20	-2.93998362e-02	2.93998362e-02
62              	5.85778695e-02	-3.17766852e-01	3.76344722e-01	-6.94111574e-01	-1.23641672e-01	-5.70469902e-01	2.23414115e-01	-3.47055787e-01	-2.92889348e-02	-1.83148927e-20	-2.92889348e-02	2.92889348e-02
63              	5.85392949e-02	-3.18768182e-01	3.77307477e-01	-6.96075659e-01	-1.22972123e-01	-5.73103537e-01	2.25065707e-01	-3.48037830e-01	-2.92696475e-02	-1.82915386e-20	-2.92696475e-02	2.92696475e-02
64              	5.87086577e-02	-3.20286476e-01	3.78995134e-01	-6.99281610e-01	-1.22218134e-01	-5.77063476e-01	2.27422671e-01	-3.49640805e-01	-2.93543288e-02	-1.82589764e-20	-2.93543288e-02	2.93543288e-02
65              	5.88696796e-02	-3.21751139e-01	3.80620818e-01	-7.02371957e-01	-1.21619354e-01	-5.80752604e-01	2.29566625e-01	-3.51185979e-01	-2.94348398e-02	-1.82192968e-20	-2.94348398e-02	2.94348398e-02
66              	5.89544618e-02	-3.22893514e-01	3.81847975e-01	-7.04741489e-01	-1.21181460e-01	-5.83560030e-01	2.31189285e-01	-3.52370745e-01	-2.94772309e-02	-1.82031845e-20	-2.94772309e-02	2.94772309e-02
67              	5.88820042e-02	-3.23464096e-01	3.82346100e-01	-7.05810195e-01	-1.20974668e-01	-5.84835527e-01	2.31930430e-01	-3.52905098e-01	-2.94410021e-02	-1.82017597e-20	-2.94410021e-02	2.94410021e-02
68              	5.87239532e-02	-3.23657306e-01	3.82381260e-01	-7.06038566e-01	-1.20914863e-01	-5.85123703e-01	2.32104420e-01	-3.53019283e-01	-2.93619766e-02	-1.82023772e-20	-2.93619766e-02	2.93619766e-02
69              	5.84972011e-02	-3.23719453e-01	3.82216654e-01	-7.05936107e-01	-1.20910247e-01	-5.85025860e-01	2.32057806e-01	-3.52968054e-01	-2.92486006e-02	-1.82049549e-20	-2.92486006e-02	2.92486006e-02
70              	5.81849981e-02	-3.23694123e-01	3.81879121e-01	-7.05573244e-01	-1.20803561e-01	-5.84769683e-01	2.31983061e-01	-3.52786622e-01	-2.90924990e-02	-1.82058662e-20	-2.90924990e-02	2.90924990e-02
71              	5.80301629e-02	-3.24033781e-01	3.82063944e-01	-7.06097726e-01	-1.20512020e-01	-5.85585706e-01	2.32536843e-01	-3.53048863e-01	-2.90150814e-02	-1.82031017e-20	-2.90150814e-02	2.90150814e-02
72              	5.80823401e-02	-3.25031322e-01	3.83113662e-01	-7.08144985e-01	-1.19724975e-01	-5.88420010e-01	2.34347518e-01	-3.54072492e-01	-2.90411700e-02	-1.82023680e-20	-2.90411700e-02	2.90411700e-02
73              	5.81611023e-02	-3.26069895e-01	3.84230997e-01	-7.10300892e-01	-1.19129942e-01	-5.91170950e-01	2.36020504e-01	-3.55150446e-01	-2.90805512e-02	-1.82093673e-20	-2.90805512e-02	2.90805512e-02
74              	5.86160400e-02	-3.28225163e-01	3.86841203e-01	-7.15066366e-01	-1.18251711e-01	-5.96814655e-01	2.39281472e-01	-3.57533183e-01	-2.93080200e-02	-1.82202074e-20	-2.93080200e-02	2.93080200e-02
75              	5.87414946e-02	-3.29330712e-01	3.88072206e-01	-7.17402918e-01	-1.17879328e-01	-5.99523590e-01	2.40822131e-01	-3.58701459e-01	-2.93707473e-02	-1.82326687e-20	-2.93707473e-02	2.93707473e-02
76              	5.86217381e-02	-3.29572453e-01	3.88194191e-01	-7.17766645e-01	-1.17781323e-01	-5.99985322e-01	2.41102000e-01	-3.58883322e-01	-2.93108691e-02	-1.82441313e-20	-2.93108691e-02	2.93108691e-02
77              	5.84637093e-02	-3.29762816e-01	3.88226525e-01	-7.17989341e-01	-1.17715893e-01	-6.00273448e-01	2.41278778e-01	-3.58994670e-01	-2.92318547e-02	-1.82513347e-20	-2.92318547e-02	2.92318547e-02
78              	5.82688770e-02	-3.30007813e-01	3.88276690e-01	-7.18284504e-01	-1.17608799e-01	-6.00675705e-01	2.41533453e-01	-3.59142252e-01	-2.91344385e-02	-1.82533094e-20	-2.91344385e-02	2.91344385e-02
79              	5.81422693e-02	-3.30539635e-01	3.88681905e-01	-7.19221540e-01	-1.17212304e-01	-6.02009237e-01	2.42398466e-01	-3.59610770e-01	-2.90711346e-02	-1.82536143e-20	-2.90711346e-02	2.90711346e-02
80              	5.81551558e-02	-3.31247289e-01	3.89402445e-01	-7.20649734e-01	-1.16722483e-01	-6.03927251e-01	2.43602384e-01	-3.60324867e-01	-2.90775779e-02	-1.82548457e-20	-2.90775779e-02	2.90775779e-02
81              	5.85526221e-02	-3.33053085e-01	3.91605707e-01	-7.24658792e-01	-1.15659916e-01	-6.08998876e-01	2.46669480e-01	-3.62329396e-01	-2.92763111e-02	-1.82590962e-20	-2.92763111e-02	2.92763111e-02
82              	5.89416301e-02	-3.34740137e-01	3.93681767e-01	-7.28421904e-01	-1.14826304e-01	-6.13595600e-01	2.49384648e-01	-3.64210952e-01	-2.94708150e-02	-1.82681845e-20	-2.94708150e-02	2.94708150e-02
83              	5.91009314e-02	-3.35769774e-01	3.94870706e-01	-7.30640480e-01	-1.14352436e-01	-6.16288044e-01	2.50967804e-01	-3.65320240e-01	-2.95504657e-02	-1.82824319e-20	-2.95504657e-02	2.95504657e-02
84              	5.91599908e-02	-3.36477449e-01	3.95637440e-01	-7.32114889e-01	-1.14045531e-01	-6.18069359e-01	2.52011914e-01	-3.66057445e-01	-2.95799954e-02	-1.82979904e-20	-2.95799954e-02	2.95799954e-02
85              	5.91179888e-02	-3.36836543e-01	3.95954531e-01	-7.32791074e-01	-1.13874289e-01	-6.18916785e-01	2.52521248e-01	-3.66395537e-01	-2.95589944e-02	-1.83130321e-20	-2.95589944e-02	2.95589944e-02
86              	5.90634475e-02	-3.37230845e-01	3.96294292e-01	-7.33525137e-01	-1.13674358e-01	-6.19850779e-01	2.53088211e-01	-3.66762568e-01	-2.95317238e-02	-1.83269397e-20	-2.95317238e-02	2.95317238e-02
87              	5.90373054e-02	-3.37734229e-01	3.96771535e-01	-7.34505764e-01	-1.13368368e-01	-6.21137396e-01	2.53884514e-01	-3.67252882e-01	-2.95186527e-02	-1.83389084e-20	-2.95186527e-02	2.95186527e-02
88              	5.92171111e-02	-3.38939555e-01	3.98156667e-01	-7.37096222e-01	-1.12626198e-01	-6.24470024e-01	2.55921913e-01	-3.68548111e-01	-2.96085556e-02	-1.83511784e-20	-2.96085556e-02	2.96085556e-02
89              	5.94808124e-02	-3.40229602e-01	3.99710414e-01	-7.39940015e-01	-1.11865163e-01	-6.28074853e-01	2.58104845e-01	-3.69970008e-01	-2.97404062e-02	-1.83671043e-20	-2.97404062e-02	2.97404062e-02
90              	5.98091374e-02	-3.41686741e-01	4.01495879e-01	-7.43182620e-01	-1.11113979e-01	-6.32068640e-01	2.60477331e-01	-3.71591310e-01	-2.99045687e-02	-1.83907396e-20	-2.99045687e-02	2.99045687e-02
91              	6.00539191e-02	-3.42886473e-01	4.02940392e-01	-7.45826865e-01	-1.10557753e-01	-6.35269112e-01	2.62355679e-01	-3.72913433e-01	-3.00269595e-02	-1.84206917e-20	-3.00269595e-02	3.00269595e-02
92              	6.01189220e-02	-3.43489932e-01	4.03608854e-01	-7.47098786e-01	-1.10280617e-01	-6.36818169e-01	2.63268776e-01	-3.73549393e-01	-3.00594610e-02	-1.84516045e-20	-3.00594610e-02	3.00594610e-02
93              	6.00877614e-02	-3.43771141e-01	4.03858903e-01	-7.47630044e-01	-1.10135955e-01	-6.37494088e-01	2.63679066e-01	-3.73815022e-01	-3.00438807e-02	-1.84809230e-20	-3.00438807e-02	3.00438807e-02
94              	6.00644834e-02	-3.44191244e-01	4.04255728e-01	-7.48446972e-01	-1.09923991e-01	-6.38522981e-01	2.64299495e-01	-3.74223486e-01	-3.00322417e-02	-1.85077558e-20	-3.00322417e-02	3.00322417e-02
95              	6.00770338e-02	-3.44723916e-01	4.04800950e-01	-7.49524866e-01	-1.09611289e-01	-6.39913576e-01	2.65151144e-01	-3.74762433e-01	-3.00385169e-02	-1.85321261e-20	-3.00385169e-02	3.00385169e-02
96              	6.03590323e-02	-3.46156118e-01	4.06515150e-01	-7.52671268e-01	-1.08807956e-01	-6.43863312e-01	2.67527678e-01	-3.76335634e-01	-3.01795162e-02	-1.85648038e-20	-3.01795162e-02	3.01795162e-02
97              	6.05521329e-02	-3.47133328e-01	4.07685461e-01	-7.54818789e-01	-1.08219442e-01	-6.46599347e-01	2.69189952e-01	-3.77409394e-01	-3.02760664e-02	-1.85944058e-20	-3.02760664e-02	3.02760664e-02
98              	6.09428981e-02	-3.48679029e-01	4.09621927e-01	-7.58300956e-01	-1.07452978e-01	-6.50847978e-01	2.71697500e-01	-3.79150478e-01	-3.04714490e-02	-1.86214748e-20	-3.04714490e-02	3.04714490e-02
99              	6.11162023e-02	-3.49542939e-01	4.10659141e-01	-7.60202080e-01	-1.07035594e-01	-6.53166487e-01	2.73065446e-01	-3.80101040e-01	-3.05581011e-02	-1.86457314e-20	-3.05581011e-02	3.05581011e-02
100             	6.11108277e-02	-3.49824712e-01	4.10935539e-01	-7.60760251e-01	-1.06885058e-01	-6.53875193e-01	2.73495068e-01	-3.80380125e-01	-3.05554139e-02	-1.86696705e-20	-3.05554139e-02	3.05554139e-02
101             	6.10803628e-02	-3.50073413e-01	4.11153776e-01	-7.61227189e-01	-1.06748272e-01	-6.54478917e-01	2.73865323e-01	-3.80613595e-01	-3.05401814e-02	-1.86944145e-20	-3.05401814e-02	3.05401814e-02
102             	6.11021325e-02	-3.50593337e-01	4.11695470e-01	-7.62288807e-01	-1.06477137e-01	-6.55811669e-01	2.74667266e-01	-3.81144403e-01	-3.05510662e-02	-1.87300005e-20	-3.05510662e-02	3.05510662e-02
103             	6.12806313e-02	-3.51636375e-01	4.12917006e-01	-7.64553381e-01	-1.05948450e-01	-6.58604931e-01	2.76328241e-01	-3.82276690e-01	-3.06403157e-02	-1.87622042e-20	-3.06403157e-02	3.06403157e-02
104             	6.14217779e-02	-3.52450425e-01	4.13872203e-01	-7.66322627e-01	-1.05475256e-01	-6.60847372e-01	2.77686058e-01	-3.83161314e-01	-3.07108890e-02	-1.87856565e-20	-3.07108890e-02	3.07108890e-02
105             	6.18037798e-02	-3.54012832e-01	4.15816612e-01	-7.69829445e-01	-1.04692646e-01	-6.65136798e-01	2.80222076e-01	-3.84914722e-01	-3.09018899e-02	-1.87992428e-20	-3.09018899e-02	3.09018899e-02
106             	6.20287787e-02	-3.54977328e-01	4.17006107e-01	-7.71983435e-01	-1.04204265e-01	-6.67779170e-01	2.81787452e-01	-3.85991718e-01	-3.10143894e-02	-1.88069532e-20	-3.10143894e-02	3.10143894e-02
107             	6.20931400e-02	-3.55430255e-01	4.17523395e-01	-7.72953651e-01	-1.03975720e-01	-6.68977931e-01	2.82501105e-01	-3.86476825e-01	-3.10465700e-02	-1.88168215e-20	-3.10465700e-02	3.10465700e-02
108             	6.20933525e-02	-3.55735439e-01	4.17828792e-01	-7.73564231e-01	-1.03832049e-01	-6.69732182e-01	2.82950067e-01	-3.86782116e-01	-3.10466762e-02	-1.88295683e-20	-3.10466762e-02	3.10466762e-02
109             	6.20786300e-02	-3.56060658e-01	4.18139288e-01	-7.74199947e-01	-1.03669018e-01	-6.70530929e-01	2.83430955e-01	-3.87099973e-01	-3.10393150e-02	-1.88442260e-20	-3.10393150e-02	3.10393150e-02
110             	6.21289553e-02	-3.56689311e-01	4.18818267e-01	-7.75507578e-01	-1.03340366e-01	-6.72167213e-01	2.84413424e-01	-3.87753789e-01	-3.10644777e-02	-1.88591311e-20	-3.10644777e-02	3.10644777e-02
111             	6.24260175e-02	-3.58141603e-01	4.20567620e-01	-7.78709223e-01	-1.02632555e-01	-6.76076668e-01	2.86722056e-01	-3.89354612e-01	-3.12130087e-02	-1.88752965e-20	-3.12130087e-02	3.12130087e-02
112             	6.26099056e-02	-3.59032618e-01	4.21642523e-01	-7.80675141e-01	-1.02155071e-01	-6.78520069e-01	2.88182499e-01	-3.90337570e-01	-3.13049528e-02	-1.88917170e-20	-3.13049528e-02	3.13049528e-02
113             	6.29635698e-02	-3.60348332e-01	4.23311902e-01	-7.83660233e-01	-1.01556231e-01	-6.82104002e-01	2.90273885e-01	-3.91830117e-01	-3.14817849e-02	-1.89098738e-20	-3.14817849e-02	3.14817849e-02
114             	6.30161574e-02	-3.60746733e-01	4.23762890e-01	-7.84509623e-01	-1.01356381e-01	-6.83153243e-01	2.90898431e-01	-3.92254812e-01	-3.15080787e-02	-1.89292615e-20	-3.15080787e-02	3.15080787e-02
115             	6.30137810e-02	-3.61018334e-01	4.24032115e-01	-7.85050450e-01	-1.01219923e-01	-6.83830527e-01	2.91305302e-01	-3.92525225e-01	-3.15068905e-02	-1.89522790e-20	-3.15068905e-02	3.15068905e-02
116             	6.30036844e-02	-3.61332146e-01	4.24335830e-01	-7.85667977e-01	-1.01059598e-01	-6.84608379e-01	2.91774391e-01	-3.92833988e-01	-3.15018422e-02	-1.89768227e-20	-3.15018422e-02	3.15018422e-02
117             	6.30583212e-02	-3.61928764e-01	4.24987085e-01	-7.86915849e-01	-1.00756904e-01	-6.86158945e-01	2.92701021e-01	-3.93457925e-01	-3.15291606e-02	-1.90017156e-20	-3.15291606e-02	3.15291606e-02
118             	6.32049811e-02	-3.62778123e-01	4.25983104e-01	-7.88761226e-01	-1.00298884e-01	-6.88462343e-01	2.94081730e-01	-3.94380613e-01	-3.16024906e-02	-1.90257653e-20	-3.16024906e-02	3.16024906e-02
119             	6.36261736e-02	-3.64348227e-01	4.27974401e-01	-7.92322628e-01	-9.95341198e-02	-6.92788508e-01	2.96627194e-01	-3.96161314e-01	-3.18130868e-02	-1.90489394e-20	-3.18130868e-02	3.18130868e-02
120             	6.37976433e-02	-3.65010381e-01	4.28808024e-01	-7.93818405e-01	-9.91605845e-02	-6.94657820e-01	2.97748618e-01	-3.96909202e-01	-3.18988216e-02	-1.90717336e-20	-3.18988216e-02	3.18988216e-02
121             	6.39287847e-02	-3.65567780e-01	4.29496564e-01	-7.95064344e-01	-9.88577558e-02	-6.96206588e-01	2.98674416e-01	-3.97532172e-01	-3.19643923e-02	-1.90965130e-20	-3.19643923e-02	3.19643923e-02
122             	6.39479670e-02	-3.65826216e-01	4.29774183e-01	-7.95600398e-01	-9.87128576e-02	-6.96887541e-01	2.99087341e-01	-3.97800199e-01	-3.19739835e-02	-1.91275489e-20	-3.19739835e-02	3.19739835e-02
123             	6.39796768e-02	-3.66190655e-01	4.30170332e-01	-7.96360987e-01	-9.85224914e-02	-6.97838496e-01	2.99658002e-01	-3.98180494e-01	-3.19898384e-02	-1.91612696e-20	-3.19898384e-02	3.19898384e-02
124             	6.40701533e-02	-3.66775272e-01	4.30845425e-01	-7.97620697e-01	-9.82349722e-02	-6.99385725e-01	3.00575376e-01	-3.98810349e-01	-3.20350767e-02	-1.91937564e-20	-3.20350767e-02	3.20350767e-02
125             	6.41706155e-02	-3.67397358e-01	4.31567974e-01	-7.98965332e-01	-9.79099398e-02	-7.01055392e-01	3.01572726e-01	-3.99482666e-01	-3.20853078e-02	-1.92244734e-20	-3.20853078e-02	3.20853078e-02
126             	6.44354548e-02	-3.68533924e-01	4.32969378e-01	-8.01503302e-01	-9.73454958e-02	-7.04157806e-01	3.03406155e-01	-4.00751651e-01	-3.22177274e-02	-1.92533940e-20	-3.22177274e-02	3.22177274e-02
127             	6.46886496e-02	-3.69495567e-01	4.34184217e-01	-8.03679784e-01	-9.68821568e-02	-7.06797628e-01	3.04957735e-01	-4.01839892e-01	-3.23443248e-02	-1.92805728e-20	-3.23443248e-02	3.23443248e-02
128             	6.48327629e-02	-3.70106229e-01	4.34938992e-01	-8.05045221e-01	-9.65800463e-02	-7.08465175e-01	3.05942564e-01	-4.02522611e-01	-3.24163814e-02	-1.93084442e-20	-3.24163814e-02	3.24163814e-02
129             	6.49060087e-02	-3.70507900e-01	4.35413909e-01	-8.05921809e-01	-9.63759948e-02	-7.09545814e-01	3.06584910e-01	-4.02960905e-01	-3.24530043e-02	-1.93300241e-20	-3.24530043e-02	3.24530043e-02
130             	6.49283438e-02	-3.70778539e-01	4.35706883e-01	-8.06485422e-01	-9.62244163e-02	-7.10261006e-01	3.07018295e-01	-4.03242711e-01	-3.24641719e-02	-1.93497447e-20	-3.24641719e-02	3.24641719e-02
131             	6.49601537e-02	-3.71140965e-01	4.36101119e-01	-8.07242084e-01	-9.60276388e-02	-7.11214445e-01	3.07593403e-01	-4.03621042e-01	-3.24800769e-02	-1.93690338e-20	-3.24800769e-02	3.24800769e-02
132             	6.50543649e-02	-3.71744539e-01	4.36798904e-01	-8.08543442e-01	-9.57109072e-02	-7.12832535e-01	3.08560814e-01	-4.04271721e-01	-3.25271825e-02	-1.93872368e-20	-3.25271825e-02	3.25271825e-02
133             	6.52680228e-02	-3.72685540e-01	4.37953562e-01	-8.10639102e-01	-9.52442222e-02	-7.15394880e-01	3.10075329e-01	-4.05319551e-01	-3.26340114e-02	-1.94044170e-20	-3.26340114e-02	3.26340114e-02
134             	6.55136882e-02	-3.73619141e-01	4.39132830e-01	-8.12751971e-01	-9.48102856e-02	-7.17941685e-01	3.11565700e-01	-4.06375985e-01	-3.27568441e-02	-1.94212356e-20	-3.27568441e-02	3.27568441e-02
135             	6.56831205e-02	-3.74265250e-01	4.39948371e-01	-8.14213621e-01	-9.45131474e-02	-7.19700474e-01	3.12593663e-01	-4.07106811e-01	-3.28415603e-02	-1.94381611e-20	-3.28415603e-02	3.28415603e-02
136             	6.57545446e-02	-3.74632149e-01	4.40386694e-01	-8.15018843e-01	-9.43421056e-02	-7.20676738e-01	3.13167316e-01	-4.07509422e-01	-3.28772723e-02	-1.94555813e-20	-3.28772723e-02	3.28772723e-02
137             	6.58148673e-02	-3.75038341e-01	4.40853209e-01	-8.15891550e-01	-9.41533101e-02	-7.21738240e-01	3.13792465e-01	-4.07945775e-01	-3.29074336e-02	-1.94697590e-20	-3.29074336e-02	3.29074336e-02
138             	6.58695237e-02	-3.75459984e-01	4.41329508e-01	-8.16789492e-01	-9.39584548e-02	-7.22831038e-01	3.14436291e-01	-4.08394746e-01	-3.29347619e-02	-1.94780822e-20	-3.29347619e-02	3.29347619e-02
139             	6.59562857e-02	-3.75990705e-01	4.41946991e-01	-8.17937697e-01	-9.37016573e-02	-7.24236039e-01	3.15267191e-01	-4.08968848e-01	-3.29781429e-02	-1.94834599e-20	-3.29781429e-02	3.29781429e-02
140             	6.61142643e-02	-3.76736844e-01	4.42851108e-01	-8.19587951e-01	-9.33552176e-02	-7.26232734e-01	3.16438758e-01	-4.09793976e-01	-3.30571321e-02	-1.94883091e-20	-3.30571321e-02	3.30571321e-02
141             	6.62783126e-02	-3.77475828e-01	4.43754141e-01	-8.21229969e-01	-9.30065984e-02	-7.28223371e-01	3.17608386e-01	-4.10614985e-01	-3.31391563e-02	-1.94927575e-20	-3.31391563e-02	3.31391563e-02
142             	6.64559200e-02	-3.78185929e-01	4.44641849e-01	-8.22827777e-01	-9.26869115e-02	-7.30140866e-01	3.18726977e-01	-4.11413889e-01	-3.32279600e-02	-1.94967981e-20	-3.32279600e-02	3.32279600e-02