# Force and moment coefficients
# dragDir       : (1.00000000e+00 0.00000000e+00 0.00000000e+00)
# sideDir       : (0.00000000e+00 0.00000000e+00 -1.00000000e+00)
# liftDir       : (0.00000000e+00 1.00000000e+00 0.00000000e+00)
# rollAxis      : (1.00000000e+00 0.00000000e+00 0.00000000e+00)
# pitchAxis     : (0.00000000e+00 0.00000000e+00 -1.00000000e+00)
# yawAxis       : (0.00000000e+00 1.00000000e+00 0.00000000e+00)
# magUInf       : 1.03413075e-01
# lRef          : 1.00000000e+00
# Aref          : 1.00000000e+00
# CofR          : (0.00000000e+00 0.00000000e+00 0.00000000e+00)
#
# Time          	Cd              	Cd(f)           	Cd(r)           	Cl              	Cl(f)           	Cl(r)           	CmPitch         	CmRoll          	CmYaw           	Cs              	Cs(f)           	Cs(r)           
1               	4.53377847e+01	-4.48590077e+01	9.01967923e+01	-1.35055800e+02	3.92612499e+00	-1.38981925e+02	7.14540250e+01	-6.75279000e+01	-2.26688923e+01	-4.39281995e-20	-2.26688923e+01	2.26688923e+01
2               	3.29798439e+01	-3.58359705e+01	6.88158144e+01	-1.04651785e+02	1.38144472e+01	-1.18466232e+02	6.61403396e+01	-5.23258924e+01	-1.64899220e+01	-3.90133218e-20	-1.64899220e+01	1.64899220e+01
3               	1.06410456e+00	1.30053352e+01	-1.19412306e+01	2.49465658e+01	6.12951021e+00	1.88170556e+01	-6.34377270e+00	1.24732829e+01	-5.32052280e-01	-2.49429139e-20	-5.32052280e-01	5.32052280e-01
4               	-1.01944763e+01	1.64219149e+01	-2.66163911e+01	4.30383060e+01	-9.40888732e-01	4.39791947e+01	-2.24600417e+01	2.15191530e+01	5.09723813e+00	-1.36571420e-20	5.09723813e+00	-5.09723813e+00
5               	-5.20271887e+00	4.63478380e-01	-5.66619725e+00	6.12967563e+00	-2.97043077e+00	9.10010641e+00	-6.03526859e+00	3.06483782e+00	2.60135944e+00	-1.27273751e-20	2.60135944e+00	-2.60135944e+00
6               	1.52820537e-01	-8.09591251e+00	8.24873305e+00	-1.63446456e+01	-2.30349085e+00	-1.40411547e+01	5.86883194e+00	-8.17232278e+00	-7.64102684e-02	-1.59919790e-20	-7.64102684e-02	7.64102684e-02
7               	1.84331931e+00	-5.77530910e+00	7.61862842e+00	-1.33939375e+01	-1.00242960e+00	-1.23915079e+01	5.69453916e+00	-6.69696876e+00	-9.21659657e-01	-1.90370001e-20	-9.21659657e-01	9.21659657e-01
8               	1.10527327e+00	2.27600440e-02	1.08251322e+00	-1.05975318e+00	2.46709161e-01	-1.30646234e+00	7.76585750e-01	-5.29876589e-01	-5.52636633e-01	-1.97556402e-20	-5.52636633e-01	5.52636633e-01
9               	3.53111409e-01	2.62880029e+00	-2.27568888e+00	4.90448918e+00	7.20058959e-01	4.18443022e+00	-1.73218563e+00	2.45224459e+00	-1.76555704e-01	-1.91253926e-20	-1.76555704e-01	1.76555704e-01
10              	-3.22309959e-02	2.01449260e+00	-2.04672360e+00	4.06121621e+00	4.93659517e-01	3.56755669e+00	-1.53694859e+00	2.03060810e+00	1.61154980e-02	-1.83336595e-20	1.61154980e-02	-1.61154980e-02
11              	-3.68588488e-02	9.28266867e-02	-1.29685535e-01	2.22512222e-01	-5.74656125e-02	2.79977835e-01	-1.68721724e-01	1.11256111e-01	1.84294244e-02	-1.79829036e-20	1.84294244e-02	-1.84294244e-02
12              	-6.79795095e-03	-1.04147053e+00	1.03467258e+00	-2.07614310e+00	-3.95681092e-01	-1.68046201e+00	6.42390459e-01	-1.03807155e+00	3.39897548e-03	-1.79586112e-20	3.39897548e-03	-3.39897548e-03
13              	4.32092338e-02	-1.16397106e+00	1.20718030e+00	-2.37115136e+00	-4.41287663e-01	-1.92986370e+00	7.44288016e-01	-1.18557568e+00	-2.16046169e-02	-1.79792783e-20	-2.16046169e-02	2.16046169e-02
14              	7.78774661e-02	-6.14290584e-01	6.92168050e-01	-1.30645863e+00	-2.68783001e-01	-1.03767563e+00	3.84446316e-01	-6.53229317e-01	-3.89387330e-02	-1.79683225e-20	-3.89387330e-02	3.89387330e-02
15              	1.13973725e-01	-1.79968284e-01	2.93942009e-01	-4.73910293e-01	-1.24223778e-01	-3.49686515e-01	1.12731368e-01	-2.36955147e-01	-5.69868624e-02	-1.79000398e-20	-5.69868624e-02	5.69868624e-02
16              	1.22102297e-01	-1.11979078e-02	1.33300204e-01	-1.44498112e-01	-5.90618626e-02	-8.54362495e-02	1.31871934e-02	-7.22490561e-02	-6.10511483e-02	-1.78379520e-20	-6.10511483e-02	6.10511483e-02
17              	1.16458207e-01	-7.54249443e-02	1.91883151e-01	-2.67308095e-01	-7.57612169e-02	-1.91546878e-01	5.78928308e-02	-1.33654048e-01	-5.82291034e-02	-1.77574744e-20	-5.82291034e-02	5.82291034e-02
18              	9.37810048e-02	-2.16361928e-01	3.10142933e-01	-5.26504860e-01	-1.18364272e-01	-4.08140588e-01	1.44888158e-01	-2.63252430e-01	-4.68905024e-02	-1.76839906e-20	-4.68905024e-02	4.68905024e-02
19              	7.93341641e-02	-3.26284924e-01	4.05619089e-01	-7.31904013e-01	-1.56608674e-01	-5.75295339e-01	2.09343332e-01	-3.65952006e-01	-3.96670821e-02	-1.76466525e-20	-3.96670821e-02	3.96670821e-02
20              	7.01291339e-02	-3.49580813e-01	4.19709947e-01	-7.69290760e-01	-1.65029355e-01	-6.04261405e-01	2.19616025e-01	-3.84645380e-01	-3.50645670e-02	-1.76948987e-20	-3.50645670e-02	3.50645670e-02
21              	7.34905753e-02	-3.37018155e-01	4.10508731e-01	-7.47526886e-01	-1.61237262e-01	-5.86289624e-01	2.12526181e-01	-3.73763443e-01	-3.67452876e-02	-1.77286442e-20	-3.67452876e-02	3.67452876e-02
22              	7.82564364e-02	-2.99852619e-01	3.78109055e-01	-6.77961675e-01	-1.45384188e-01	-5.32577487e-01	1.93596650e-01	-3.38980837e-01	-3.91282182e-02	-1.77401353e-20	-3.91282182e-02	3.91282182e-02
23              	8.29290466e-02	-2.85523454e-01	3.68452501e-01	-6.53975955e-01	-1.36752362e-01	-5.17223593e-01	1.90235615e-01	-3.26987977e-01	-4.14645233e-02	-1.77235679e-20	-4.14645233e-02	4.14645233e-02
24              	8.30422800e-02	-2.73179633e-01	3.56221913e-01	-6.29401546e-01	-1.30738673e-01	-4.98662873e-01	1.83962100e-01	-3.14700773e-01	-4.15211400e-02	-1.77477279e-20	-4.15211400e-02	4.15211400e-02
25              	8.06005638e-02	-2.72543077e-01	3.53143640e-01	-6.25686717e-01	-1.31534013e-01	-4.94152704e-01	1.81309345e-01	-3.12843358e-01	-4.03002819e-02	-1.77524713e-20	-4.03002819e-02	4.03002819e-02
26              	7.57984465e-02	-2.78325570e-01	3.54124017e-01	-6.32449587e-01	-1.34977820e-01	-4.97471767e-01	1.81246974e-01	-3.16224794e-01	-3.78992232e-02	-1.77345047e-20	-3.78992232e-02	3.78992232e-02
27              	7.24106842e-02	-2.89795585e-01	3.62206269e-01	-6.52001855e-01	-1.39719627e-01	-5.12282228e-01	1.86281301e-01	-3.26000927e-01	-3.62053421e-02	-1.76860954e-20	-3.62053421e-02	3.62053421e-02
28              	7.09357412e-02	-2.94368171e-01	3.65303912e-01	-6.59672082e-01	-1.40772301e-01	-5.18899781e-01	1.89063740e-01	-3.29836041e-01	-3.54678706e-02	-1.76138046e-20	-3.54678706e-02	3.54678706e-02
29              	7.05957572e-02	-2.96887994e-01	3.67483751e-01	-6.64371745e-01	-1.40486819e-01	-5.23884926e-01	1.91699054e-01	-3.32185873e-01	-3.52978786e-02	-1.75646708e-20	-3.52978786e-02	3.52978786e-02
30              	7.13978420e-02	-2.95183881e-01	3.66581723e-01	-6.61765603e-01	-1.38094996e-01	-5.23670607e-01	1.92787806e-01	-3.30882802e-01	-3.56989210e-02	-1.75259826e-20	-3.56989210e-02	3.56989210e-02
31              	7.12110933e-02	-2.92232960e-01	3.63444053e-01	-6.55677013e-01	-1.35720546e-01	-5.19956467e-01	1.92117961e-01	-3.27838506e-01	-3.56055467e-02	-1.74847815e-20	-3.56055467e-02	3.56055467e-02
32              	7.07783253e-02	-2.91641139e-01	3.62419465e-01	-6.54060604e-01	-1.34275070e-01	-5.19785535e-01	1.92755233e-01	-3.27030302e-01	-3.53891627e-02	-1.74504076e-20	-3.53891627e-02	3.53891627e-02
33              	6.98753583e-02	-2.92470317e-01	3.62345676e-01	-6.54815993e-01	-1.33065118e-01	-5.21750875e-01	1.94342879e-01	-3.27407997e-01	-3.49376791e-02	-1.75553473e-20	-3.49376791e-02	3.49376791e-02
34              	6.90822781e-02	-2.95497291e-01	3.64579569e-01	-6.60076859e-01	-1.32049986e-01	-5.28026874e-01	1.97988444e-01	-3.30038430e-01	-3.45411390e-02	-1.76380008e-20	-3.45411390e-02	3.45411390e-02
35              	6.85970537e-02	-2.99711312e-01	3.68308366e-01	-6.68019678e-01	-1.31171726e-01	-5.36847952e-01	2.02838113e-01	-3.34009839e-01	-3.42985268e-02	-1.77091735e-20	-3.42985268e-02	3.42985268e-02
36              	6.84655853e-02	-3.03278659e-01	3.71744244e-01	-6.75022904e-01	-1.30620820e-01	-5.44402083e-01	2.06890631e-01	-3.37511452e-01	-3.42327927e-02	-1.77718757e-20	-3.42327927e-02	3.42327927e-02
37              	6.78241185e-02	-3.03883476e-01	3.71707594e-01	-6.75591070e-01	-1.30517268e-01	-5.45073802e-01	2.07278267e-01	-3.37795535e-01	-3.39120592e-02	-1.78310242e-20	-3.39120592e-02	3.39120592e-02
38              	6.72413321e-02	-3.04043100e-01	3.71284432e-01	-6.75327532e-01	-1.30389400e-01	-5.44938132e-01	2.07274366e-01	-3.37663766e-01	-3.36206660e-02	-1.78718556e-20	-3.36206660e-02	3.36206660e-02
39              	6.62066806e-02	-3.01529262e-01	3.67735942e-01	-6.69265204e-01	-1.29911170e-01	-5.39354034e-01	2.04721432e-01	-3.34632602e-01	-3.31033403e-02	-1.79894940e-20	-3.31033403e-02	3.31033403e-02
40              	6.53753462e-02	-2.99932229e-01	3.65307575e-01	-6.65239804e-01	-1.30031834e-01	-5.35207970e-01	2.02588068e-01	-3.32619902e-01	-3.26876731e-02	-1.81746440e-20	-3.26876731e-02	3.26876731e-02
41              	6.47082641e-02	-2.99667156e-01	3.64375420e-01	-6.64042576e-01	-1.29631473e-01	-5.34411103e-01	2.02389815e-01	-3.32021288e-01	-3.23541320e-02	-1.83218008e-20	-3.23541320e-02	3.23541320e-02
42              	6.43235675e-02	-3.00868269e-01	3.65191836e-01	-6.66060105e-01	-1.29006292e-01	-5.37053813e-01	2.04023761e-01	-3.33030053e-01	-3.21617838e-02	-1.84731873e-20	-3.21617838e-02	3.21617838e-02
43              	6.40436704e-02	-3.02684169e-01	3.66727840e-01	-6.69412009e-01	-1.28218282e-01	-5.41193727e-01	2.06487722e-01	-3.34706004e-01	-3.20218352e-02	-1.86095428e-20	-3.20218352e-02	3.20218352e-02
44              	6.38737696e-02	-3.04656175e-01	3.68529945e-01	-6.73186120e-01	-1.27485023e-01	-5.45701097e-01	2.09108037e-01	-3.36593060e-01	-3.19368848e-02	-1.87218906e-20	-3.19368848e-02	3.19368848e-02
45              	6.37691727e-02	-3.06574676e-01	3.70343849e-01	-6.76918526e-01	-1.26601707e-01	-5.50316819e-01	2.11857556e-01	-3.38459263e-01	-3.18845863e-02	-1.88182798e-20	-3.18845863e-02	3.18845863e-02
46              	6.37130890e-02	-3.08240717e-01	3.71953806e-01	-6.80194523e-01	-1.25701346e-01	-5.54493177e-01	2.14395916e-01	-3.40097261e-01	-3.18565445e-02	-1.88021136e-20	-3.18565445e-02	3.18565445e-02
47              	6.34459615e-02	-3.08744307e-01	3.72190268e-01	-6.80934575e-01	-1.25351125e-01	-5.55583450e-01	2.15116162e-01	-3.40467288e-01	-3.17229807e-02	-1.87276695e-20	-3.17229807e-02	3.17229807e-02
48              	6.29101065e-02	-3.08437057e-01	3.71347163e-01	-6.79784220e-01	-1.24975285e-01	-5.54808935e-01	2.14916825e-01	-3.39892110e-01	-3.14550533e-02	-1.86729681e-20	-3.14550533e-02	3.14550533e-02
49              	6.22678629e-02	-3.07557468e-01	3.69825331e-01	-6.77382799e-01	-1.24778325e-01	-5.52604474e-01	2.13913074e-01	-3.38691399e-01	-3.11339314e-02	-1.86524574e-20	-3.11339314e-02	3.11339314e-02
50              	6.18517060e-02	-3.07576270e-01	3.69427976e-01	-6.77004246e-01	-1.24560648e-01	-5.52443597e-01	2.13941475e-01	-3.38502123e-01	-3.09258530e-02	-1.86361300e-20	-3.09258530e-02	3.09258530e-02
51              	6.14203060e-02	-3.07878033e-01	3.69298339e-01	-6.77176371e-01	-1.24083676e-01	-5.53092695e-01	2.14504510e-01	-3.38588186e-01	-3.07101530e-02	-1.86232426e-20	-3.07101530e-02	3.07101530e-02
52              	6.11476126e-02	-3.08782204e-01	3.69929817e-01	-6.78712021e-01	-1.23406585e-01	-5.55305437e-01	2.15949426e-01	-3.39356011e-01	-3.05738063e-02	-1.86126300e-20	-3.05738063e-02	3.05738063e-02
53              	6.09673787e-02	-3.09726681e-01	3.70694059e-01	-6.80420740e-01	-1.22951917e-01	-5.57468823e-01	2.17258453e-01	-3.40210370e-01	-3.04836893e-02	-1.85991073e-20	-3.04836893e-02	3.04836893e-02
54              	6.08163616e-02	-3.10755477e-01	3.71571839e-01	-6.82327316e-01	-1.22533133e-01	-5.59794183e-01	2.18630525e-01	-3.41163658e-01	-3.04081808e-02	-1.85687083e-20	-3.04081808e-02	3.04081808e-02
55              	6.06279453e-02	-3.11395689e-01	3.72023634e-01	-6.83419324e-01	-1.22255858e-01	-5.61163466e-01	2.19453804e-01	-3.41709662e-01	-3.03139726e-02	-1.85251027e-20	-3.03139726e-02	3.03139726e-02
56              	6.04996671e-02	-3.12630239e-01	3.73129906e-01	-6.85760145e-01	-1.21628720e-01	-5.64131426e-01	2.21251353e-01	-3.42880073e-01	-3.02498335e-02	-1.84734990e-20	-3.02498335e-02	3.02498335e-02
57              	6.02470687e-02	-3.13009744e-01	3.73256812e-01	-6.86266556e-01	-1.21404288e-01	-5.64862268e-01	2.21728990e-01	-3.43133278e-01	-3.01235343e-02	-1.84171105e-20	-3.01235343e-02	3.01235343e-02
58              	5.97254732e-02	-3.12556660e-01	3.72282134e-01	-6.84838794e-01	-1.21351060e-01	-5.63487733e-01	2.21068336e-01	-3.42419397e-01	-2.98627366e-02	-1.83660616e-20	-2.98627366e-02	2.98627366e-02
59              	5.90591644e-02	-3.11507766e-01	3.70566930e-01	-6.82074696e-01	-1.21442157e-01	-5.60632539e-01	2.19595191e-01	-3.41037348e-01	-2.95295822e-02	-1.83264837e-20	-2.95295822e-02	2.95295822e-02
60              	5.84170765e-02	-3.10659103e-01	3.69076180e-01	-6.79735283e-01	-1.21506481e-01	-5.58228802e-01	2.18361161e-01	-3.39867641e-01	-2.92085383e-02	-1.83089153e-20	-2.92085383e-02	2.92085383e-02
61              	5.81317795e-02	-3.10860279e-01	3.68992058e-01	-6.79852337e-01	-1.21407481e-01	-5.58444856e-01	2.18518687e-01	-3.39926169e-01	-2.90658898e-02	-1.82984566e-20	-2.90658898e-02	2.90658898e-02
62              	5.78982954e-02	-3.11421618e-01	3.69319913e-01	-6.80741531e-01	-1.21115052e-01	-5.59626478e-01	2.19255713e-01	-3.40370765e-01	-2.89491477e-02	-1.82823199e-20	-2.89491477e-02	2.89491477e-02
63              	5.77908737e-02	-3.12790157e-01	3.70581030e-01	-6.83371187e-01	-1.20392621e-01	-5.62978567e-01	2.21292973e-01	-3.41685594e-01	-2.88954369e-02	-1.82581667e-20	-2.88954369e-02	2.88954369e-02
64              	5.77879065e-02	-3.14122208e-01	3.71910114e-01	-6.86032322e-01	-1.19692756e-01	-5.66339566e-01	2.23323405e-01	-3.43016161e-01	-2.88939533e-02	-1.82246593e-20	-2.88939533e-02	2.88939533e-02
65              	5.77935413e-02	-3.15281593e-01	3.73075135e-01	-6.88356728e-01	-1.19093496e-01	-5.69263232e-01	2.25084868e-01	-3.44178364e-01	-2.88967706e-02	-1.81862494e-20	-2.88967706e-02	2.88967706e-02
66              	5.76531977e-02	-3.15762258e-01	3.73415455e-01	-6.89177713e-01	-1.18847826e-01	-5.70329887e-01	2.25741031e-01	-3.44588857e-01	-2.88265989e-02	-1.81803771e-20	-2.88265989e-02	2.88265989e-02
67              	5.74555790e-02	-3.16122666e-01	3.73578245e-01	-6.89700911e-01	-1.18670543e-01	-5.71030368e-01	2.26179912e-01	-3.44850456e-01	-2.87277895e-02	-1.81816060e-20	-2.87277895e-02	2.87277895e-02
68              	5.70561683e-02	-3.16104538e-01	3.73160706e-01	-6.89265244e-01	-1.18592755e-01	-5.70672489e-01	2.26039867e-01	-3.44632622e-01	-2.85280842e-02	-1.81843756e-20	-2.85280842e-02	2.85280842e-02
69              	5.65584416e-02	-3.15601346e-01	3.72159788e-01	-6.87761134e-01	-1.18611405e-01	-5.69149729e-01	2.25269162e-01	-3.43880567e-01	-2.82792208e-02	-1.81881756e-20	-2.82792208e-02	2.82792208e-02
70              	5.62304864e-02	-3.15585371e-01	3.71815858e-01	-6.87401229e-01	-1.18500031e-01	-5.68901198e-01	2.25200584e-01	-3.43700614e-01	-2.81152432e-02	-1.81891589e-20	-2.81152432e-02	2.81152432e-02
71              	5.60341107e-02	-3.16062016e-01	3.72096127e-01	-6.88158143e-01	-1.18171136e-01	-5.69987007e-01	2.25907935e-01	-3.44079071e-01	-2.80170554e-02	-1.81861143e-20	-2.80170554e-02	2.80170554e-02
72              	5.59991993e-02	-3.17333284e-01	3.73332484e-01	-6.90665768e-01	-1.17429594e-01	-5.73236174e-01	2.27903290e-01	-3.45332884e-01	-2.79995997e-02	-1.81829467e-20	-2.79995997e-02	2.79995997e-02
73              	5.61099807e-02	-3.18871309e-01	3.74981289e-01	-6.93852598e-01	-1.16672671e-01	-5.77179927e-01	2.30253628e-01	-3.46926299e-01	-2.80549904e-02	-1.81911238e-20	-2.80549904e-02	2.80549904e-02
74              	5.61836071e-02	-3.20063584e-01	3.76247191e-01	-6.96310776e-01	-1.16167267e-01	-5.80143509e-01	2.31988121e-01	-3.48155388e-01	-2.80918036e-02	-1.82029342e-20	-2.80918036e-02	2.80918036e-02
75              	5.61243842e-02	-3.20706544e-01	3.76830928e-01	-6.97537472e-01	-1.15905233e-01	-5.81632239e-01	2.32863503e-01	-3.48768736e-01	-2.80621921e-02	-1.82155561e-20	-2.80621921e-02	2.80621921e-02
76              	5.59822854e-02	-3.21150548e-01	3.77132834e-01	-6.98283382e-01	-1.15759567e-01	-5.82523815e-01	2.33382124e-01	-3.49141691e-01	-2.79911427e-02	-1.82258699e-20	-2.79911427e-02	2.79911427e-02
77              	5.57572910e-02	-3.21436910e-01	3.77194201e-01	-6.98631111e-01	-1.15681105e-01	-5.82950005e-01	2.33634450e-01	-3.49315555e-01	-2.78786455e-02	-1.82314608e-20	-2.78786455e-02	2.78786455e-02
78              	5.54572622e-02	-3.21639294e-01	3.77096556e-01	-6.98735850e-01	-1.15540115e-01	-5.83195735e-01	2.33827810e-01	-3.49367925e-01	-2.77286311e-02	-1.82320443e-20	-2.77286311e-02	2.77286311e-02
79              	5.51429947e-02	-3.21908789e-01	3.77051784e-01	-6.98960573e-01	-1.15167995e-01	-5.83792579e-01	2.34312292e-01	-3.49480287e-01	-2.75714974e-02	-1.82324900e-20	-2.75714974e-02	2.75714974e-02
80              	5.51020921e-02	-3.22606348e-01	3.77708440e-01	-7.00314788e-01	-1.14707139e-01	-5.85607648e-01	2.35450255e-01	-3.50157394e-01	-2.75510460e-02	-1.82345298e-20	-2.75510460e-02	2.75510460e-02
81              	5.53464976e-02	-3.24409960e-01	3.79756458e-01	-7.04166418e-01	-1.13742112e-01	-5.90424305e-01	2.38341097e-01	-3.52083209e-01	-2.76732488e-02	-1.82400375e-20	-2.76732488e-02	2.76732488e-02
82              	5.56587567e-02	-3.26177485e-01	3.81836241e-01	-7.08013726e-01	-1.12941441e-01	-5.95072285e-01	2.41065422e-01	-3.54006863e-01	-2.78293784e-02	-1.82511815e-20	-2.78293784e-02	2.78293784e-02
83              	5.57780384e-02	-3.27211736e-01	3.82989774e-01	-7.10201510e-01	-1.12507748e-01	-5.97693763e-01	2.42593007e-01	-3.55100755e-01	-2.78890192e-02	-1.82670940e-20	-2.78890192e-02	2.78890192e-02
84              	5.57477817e-02	-3.27757642e-01	3.83505424e-01	-7.11263066e-01	-1.12286671e-01	-5.98976395e-01	2.43344862e-01	-3.55631533e-01	-2.78738909e-02	-1.82837107e-20	-2.78738909e-02	2.78738909e-02
85              	5.56224257e-02	-3.28018777e-01	3.83641203e-01	-7.11659980e-01	-1.12182253e-01	-5.99477727e-01	2.43647737e-01	-3.55829990e-01	-2.78112128e-02	-1.82998989e-20	-2.78112128e-02	2.78112128e-02
86              	5.54240661e-02	-3.28352931e-01	3.83776997e-01	-7.12129928e-01	-1.12033628e-01	-6.00096300e-01	2.44031336e-01	-3.56064964e-01	-2.77120331e-02	-1.83140123e-20	-2.77120331e-02	2.77120331e-02
87              	5.51963204e-02	-3.28846139e-01	3.84042459e-01	-7.12888598e-01	-1.11716551e-01	-6.01172046e-01	2.44727747e-01	-3.56444299e-01	-2.75981602e-02	-1.83265685e-20	-2.75981602e-02	2.75981602e-02
88              	5.51817340e-02	-3.29481398e-01	3.84663132e-01	-7.14144530e-01	-1.11301806e-01	-6.02842724e-01	2.45770459e-01	-3.57072265e-01	-2.75908670e-02	-1.83411870e-20	-2.75908670e-02	2.75908670e-02
89              	5.54621518e-02	-3.31399603e-01	3.86861755e-01	-7.18261357e-01	-1.10326525e-01	-6.07934832e-01	2.48804153e-01	-3.59130679e-01	-2.77310759e-02	-1.83599557e-20	-2.77310759e-02	2.77310759e-02
90              	5.57876921e-02	-3.33097267e-01	3.88884959e-01	-7.21982226e-01	-1.09564380e-01	-6.12417846e-01	2.51426733e-01	-3.60991113e-01	-2.78938461e-02	-1.83864499e-20	-2.78938461e-02	2.78938461e-02
91              	5.59113714e-02	-3.33983961e-01	3.89895332e-01	-7.23879293e-01	-1.09177810e-01	-6.14701483e-01	2.52761837e-01	-3.61939647e-01	-2.79556857e-02	-1.84189082e-20	-2.79556857e-02	2.79556857e-02
92              	5.59149840e-02	-3.34463814e-01	3.90378798e-01	-7.24842612e-01	-1.08984874e-01	-6.15857738e-01	2.53436432e-01	-3.62421306e-01	-2.79574920e-02	-1.84513533e-20	-2.79574920e-02	2.79574920e-02
93              	5.58425726e-02	-3.34797324e-01	3.90639897e-01	-7.25437221e-01	-1.08878080e-01	-6.16559141e-01	2.53840531e-01	-3.62718610e-01	-2.79212863e-02	-1.84817890e-20	-2.79212863e-02	2.79212863e-02
94              	5.57367628e-02	-3.35221689e-01	3.90958451e-01	-7.26180140e-01	-1.08736838e-01	-6.17443302e-01	2.54353232e-01	-3.63090070e-01	-2.78683814e-02	-1.85096716e-20	-2.78683814e-02	2.78683814e-02
95              	5.56365982e-02	-3.36112165e-01	3.91748763e-01	-7.27860927e-01	-1.08400349e-01	-6.19460578e-01	2.55530114e-01	-3.63930464e-01	-2.78182991e-02	-1.85405985e-20	-2.78182991e-02	2.78182991e-02
96              	5.56657207e-02	-3.36756970e-01	3.92422691e-01	-7.29179661e-01	-1.08001223e-01	-6.21178439e-01	2.56588608e-01	-3.64589831e-01	-2.78328604e-02	-1.85751761e-20	-2.78328604e-02	2.78328604e-02
97              	5.60004195e-02	-3.38712872e-01	3.94713292e-01	-7.33426164e-01	-1.07075671e-01	-6.26350493e-01	2.59637411e-01	-3.66713082e-01	-2.80002098e-02	-1.86060777e-20	-2.80002098e-02	2.80002098e-02
98              	5.62226995e-02	-3.39928015e-01	3.96150715e-01	-7.36078730e-01	-1.06514595e-01	-6.29564135e-01	2.61524770e-01	-3.68039365e-01	-2.81113498e-02	-1.86331643e-20	-2.81113498e-02	2.81113498e-02
99              	5.63425437e-02	-3.40718209e-01	3.97060753e-01	-7.37778961e-01	-1.06185514e-01	-6.31593448e-01	2.62703967e-01	-3.68889481e-01	-2.81712718e-02	-1.86591673e-20	-2.81712718e-02	2.81712718e-02
100             	5.63188422e-02	-3.41022953e-01	3.97341796e-01	-7.38364749e-01	-1.06067753e-01	-6.32296996e-01	2.63114622e-01	-3.69182374e-01	-2.81594211e-02	-1.86865348e-20	-2.81594211e-02	2.81594211e-02
101             	5.62483458e-02	-3.41314014e-01	3.97562360e-01	-7.38876374e-01	-1.05975717e-01	-6.32900658e-01	2.63462470e-01	-3.69438187e-01	-2.81241729e-02	-1.87222624e-20	-2.81241729e-02	2.81241729e-02
102             	5.61968839e-02	-3.41799086e-01	3.97995970e-01	-7.39795057e-01	-1.05795999e-01	-6.33999058e-01	2.64101529e-01	-3.69897528e-01	-2.80984419e-02	-1.87589509e-20	-2.80984419e-02	2.80984419e-02
103             	5.62381533e-02	-3.43014084e-01	3.99252238e-01	-7.42266322e-01	-1.05371836e-01	-6.36894486e-01	2.65761325e-01	-3.71133161e-01	-2.81190767e-02	-1.87894794e-20	-2.81190767e-02	2.81190767e-02
104             	5.63395155e-02	-3.43929812e-01	4.00269327e-01	-7.44199139e-01	-1.04928207e-01	-6.39270932e-01	2.67171362e-01	-3.72099570e-01	-2.81697578e-02	-1.88101756e-20	-2.81697578e-02	2.81697578e-02
105             	5.66606206e-02	-3.45643008e-01	4.02303629e-01	-7.47946637e-01	-1.04243505e-01	-6.43703131e-01	2.69729813e-01	-3.73973318e-01	-2.83303103e-02	-1.88200272e-20	-2.83303103e-02	2.83303103e-02
106             	5.68039944e-02	-3.46516445e-01	4.03320439e-01	-7.49836884e-01	-1.03872502e-01	-6.45964382e-01	2.71045940e-01	-3.74918442e-01	-2.84019972e-02	-1.88286619e-20	-2.84019972e-02	2.84019972e-02
107             	5.68539030e-02	-3.47040279e-01	4.03894182e-01	-7.50934461e-01	-1.03663182e-01	-6.47271278e-01	2.71804048e-01	-3.75467230e-01	-2.84269515e-02	-1.88397815e-20	-2.84269515e-02	2.84269515e-02
108             	5.68305299e-02	-3.47325023e-01	4.04155553e-01	-7.51480577e-01	-1.03560514e-01	-6.47920063e-01	2.72179775e-01	-3.75740288e-01	-2.84152650e-02	-1.88539414e-20	-2.84152650e-02	2.84152650e-02
109             	5.68180423e-02	-3.47884863e-01	4.04702905e-01	-7.52587768e-01	-1.03387707e-01	-6.49200062e-01	2.72906177e-01	-3.76293884e-01	-2.84090211e-02	-1.88697252e-20	-2.84090211e-02	2.84090211e-02
110             	5.68409010e-02	-3.48553727e-01	4.05394628e-01	-7.53948355e-01	-1.03133864e-01	-6.50814491e-01	2.73840313e-01	-3.76974177e-01	-2.84204505e-02	-1.88850463e-20	-2.84204505e-02	2.84204505e-02
111             	5.70367259e-02	-3.50117710e-01	4.07154436e-01	-7.57272147e-01	-1.02607023e-01	-6.54665124e-01	2.76029050e-01	-3.78636073e-01	-2.85183630e-02	-1.89032526e-20	-2.85183630e-02	2.85183630e-02
112             	5.72141653e-02	-3.51243145e-01	4.08457311e-01	-7.59700456e-01	-1.02156125e-01	-6.57544332e-01	2.77694103e-01	-3.79850228e-01	-2.86070827e-02	-1.89204986e-20	-2.86070827e-02	2.86070827e-02
113             	5.73836910e-02	-3.52248936e-01	4.09632627e-01	-7.61881563e-01	-1.01778819e-01	-6.60102744e-01	2.79161962e-01	-3.80940781e-01	-2.86918455e-02	-1.89392089e-20	-2.86918455e-02	2.86918455e-02
114             	5.75103550e-02	-3.53043194e-01	4.10553549e-01	-7.63596744e-01	-1.01515394e-01	-6.62081350e-01	2.80282978e-01	-3.81798372e-01	-2.87551775e-02	-1.89597359e-20	-2.87551775e-02	2.87551775e-02
115             	5.75111342e-02	-3.53350681e-01	4.10861815e-01	-7.64212495e-01	-1.01409797e-01	-6.62802698e-01	2.80696451e-01	-3.82106248e-01	-2.87555671e-02	-1.89828635e-20	-2.87555671e-02	2.87555671e-02
116             	5.75114346e-02	-3.53808932e-01	4.11320367e-01	-7.65129299e-01	-1.01258515e-01	-6.63870783e-01	2.81306134e-01	-3.82564649e-01	-2.87557173e-02	-1.90076757e-20	-2.87557173e-02	2.87557173e-02
117             	5.75411983e-02	-3.54320023e-01	4.11861222e-01	-7.66181245e-01	-1.01054069e-01	-6.65127176e-01	2.82036554e-01	-3.83090623e-01	-2.87705992e-02	-1.90322673e-20	-2.87705992e-02	2.87705992e-02
118             	5.76589418e-02	-3.55253248e-01	4.12912189e-01	-7.68165437e-01	-1.00664200e-01	-6.67501237e-01	2.83418518e-01	-3.84082719e-01	-2.88294709e-02	-1.90562845e-20	-2.88294709e-02	2.88294709e-02
119             	5.80545236e-02	-3.57288835e-01	4.15343359e-01	-7.72632195e-01	-1.00046168e-01	-6.72586027e-01	2.86269929e-01	-3.86316097e-01	-2.90272618e-02	-1.90788964e-20	-2.90272618e-02	2.90272618e-02
120             	5.81943419e-02	-3.57981045e-01	4.16175387e-01	-7.74156432e-01	-9.97387426e-02	-6.74417689e-01	2.87339473e-01	-3.87078216e-01	-2.90971710e-02	-1.91011782e-20	-2.90971710e-02	2.90971710e-02
121             	5.82539816e-02	-3.58403381e-01	4.16657363e-01	-7.75060744e-01	-9.95555909e-02	-6.75505153e-01	2.87974781e-01	-3.87530372e-01	-2.91269908e-02	-1.91260222e-20	-2.91269908e-02	2.91269908e-02
122             	5.82612551e-02	-3.58675401e-01	4.16936656e-01	-7.75612058e-01	-9.94372412e-02	-6.76174816e-01	2.88368788e-01	-3.87806029e-01	-2.91306275e-02	-1.91587016e-20	-2.91306275e-02	2.91306275e-02
123             	5.83144257e-02	-3.59220050e-01	4.17534476e-01	-7.76754526e-01	-9.92355121e-02	-6.77519014e-01	2.89141751e-01	-3.88377263e-01	-2.91572128e-02	-1.91916204e-20	-2.91572128e-02	2.91572128e-02
124             	5.83881503e-02	-3.59799451e-01	4.18187602e-01	-7.77987053e-01	-9.90315824e-02	-6.78955470e-01	2.89961944e-01	-3.88993526e-01	-2.91940752e-02	-1.92233294e-20	-2.91940752e-02	2.91940752e-02
125             	5.86173998e-02	-3.61129749e-01	4.19747149e-01	-7.80876898e-01	-9.86562618e-02	-6.82220637e-01	2.91782187e-01	-3.90438449e-01	-2.93086999e-02	-1.92533723e-20	-2.93086999e-02	2.93086999e-02
126             	5.87293862e-02	-3.61762942e-01	4.20492328e-01	-7.82255270e-01	-9.83701306e-02	-6.83885139e-01	2.92757504e-01	-3.91127635e-01	-2.93646931e-02	-1.92810416e-20	-2.93646931e-02	2.93646931e-02
127             	5.89166718e-02	-3.62733629e-01	4.21650301e-01	-7.84383930e-01	-9.79885141e-02	-6.86395416e-01	2.94203451e-01	-3.92191965e-01	-2.94583359e-02	-1.93089115e-20	-2.94583359e-02	2.94583359e-02
128             	5.90927777e-02	-3.63661294e-01	4.22754072e-01	-7.86415366e-01	-9.76827536e-02	-6.88732612e-01	2.95524929e-01	-3.93207683e-01	-2.95463889e-02	-1.93288120e-20	-2.95463889e-02	2.95463889e-02
129             	5.92466052e-02	-3.64524932e-01	4.23771537e-01	-7.88296470e-01	-9.74671286e-02	-6.90829341e-01	2.96681106e-01	-3.94148235e-01	-2.96233026e-02	-1.93479495e-20	-2.96233026e-02	2.96233026e-02
130             	5.92774056e-02	-3.64823212e-01	4.24100618e-01	-7.88923830e-01	-9.73782690e-02	-6.91545561e-01	2.97083646e-01	-3.94461915e-01	-2.96387028e-02	-1.93673950e-20	-2.96387028e-02	2.96387028e-02
131             	5.92979416e-02	-3.65173553e-01	4.24471495e-01	-7.89645048e-01	-9.72428854e-02	-6.92402163e-01	2.97579639e-01	-3.94822524e-01	-2.96489708e-02	-1.93860545e-20	-2.96489708e-02	2.96489708e-02
132             	5.93590854e-02	-3.65683465e-01	4.25042550e-01	-7.90726015e-01	-9.70444840e-02	-6.93681531e-01	2.98318523e-01	-3.95363007e-01	-2.96795427e-02	-1.94036908e-20	-2.96795427e-02	2.96795427e-02
133             	5.95499858e-02	-3.66763045e-01	4.26313031e-01	-7.93076075e-01	-9.66524973e-02	-6.96423578e-01	2.99885540e-01	-3.96538038e-01	-2.97749929e-02	-1.94203548e-20	-2.97749929e-02	2.97749929e-02
134             	5.98325675e-02	-3.68086803e-01	4.27919371e-01	-7.96006174e-01	-9.62584498e-02	-6.99747724e-01	3.01744637e-01	-3.98003087e-01	-2.99162837e-02	-1.94367725e-20	-2.99162837e-02	2.99162837e-02
135             	6.00091019e-02	-3.68904121e-01	4.28913223e-01	-7.97817344e-01	-9.60353665e-02	-7.01781978e-01	3.02873306e-01	-3.98908672e-01	-3.00045510e-02	-1.94535654e-20	-3.00045510e-02	3.00045510e-02
136             	6.00886953e-02	-3.69407651e-01	4.29496346e-01	-7.98903997e-01	-9.59036701e-02	-7.03000327e-01	3.03548328e-01	-3.99451998e-01	-3.00443477e-02	-1.94700416e-20	-3.00443477e-02	3.00443477e-02
137             	6.01296147e-02	-3.69801786e-01	4.29931400e-01	-7.99733186e-01	-9.57811575e-02	-7.03952029e-01	3.04085436e-01	-3.99866593e-01	-3.00648074e-02	-1.94775928e-20	-3.00648074e-02	3.00648074e-02
138             	6.01747508e-02	-3.70208204e-01	4.30382954e-01	-8.00591158e-01	-9.56296461e-02	-7.04961512e-01	3.04665933e-01	-4.00295579e-01	-3.00873754e-02	-1.94834683e-20	-3.00873754e-02	3.00873754e-02
139             	6.02524560e-02	-3.70780427e-01	4.31032883e-01	-8.01813310e-01	-9.54114526e-02	-7.06401857e-01	3.05495202e-01	-4.00906655e-01	-3.01262280e-02	-1.94887764e-20	-3.01262280e-02	3.01262280e-02
140             	6.04233415e-02	-3.71723119e-01	4.32146460e-01	-8.03869579e-01	-9.50826026e-02	-7.08786976e-01	3.06852187e-01	-4.01934790e-01	-3.02116707e-02	-1.94934724e-20	-3.02116707e-02	3.02116707e-02
141             	6.06635966e-02	-3.72837544e-01	4.33501141e-01	-8.06338684e-01	-9.47499025e-02	-7.11588782e-01	3.08419440e-01	-4.03169342e-01	-3.03317983e-02	-1.94979605e-20	-3.03317983e-02	3.03317983e-02
142             	6.08456763e-02	-3.73628742e-01	4.34474418e-01	-8.08103160e-01	-9.45427169e-02	-7.13560443e-01	3.09508863e-01	-4.04051580e-01	-3.04228381e-02	-1.95021318e-20	-3.04228381e-02	3.04228381e-02