# y+ ()         
# Time          	patch           	min             	max             	average         
0               	Floor	0.00000000e+00	0.00000000e+00	0.00000000e+00
0               	Airfoil	3.01767599e+00	4.30546495e+00	3.57024589e+00
