# y+ ()         
# Time          	patch           	min             	max             	average         
4698            	Floor	2.71119216e-01	1.68038945e+01	4.54897315e+00
4698            	Airfoil	1.21503232e-02	7.34422310e-01	2.51520533e-01
