# y+ ()         
# Time          	patch           	min             	max             	average         
20              	Floor	9.95317443e-01	7.38184411e+01	1.70820877e+01
20              	Airfoil	1.54822526e-01	2.62544043e+00	1.28133034e+00
