# y+ ()         
# Time          	patch           	min             	max             	average         
1900            	Floor	8.36782058e-02	2.46370778e+00	1.18076345e+00
1900            	Airfoil	6.51660183e-02	4.82258037e+00	1.42273968e+00
