/*--------------------------------*- C++ -*----------------------------------*\
| =========                 |                                                 |
| \\      /  F ield         | OpenFOAM: The Open Source CFD Toolbox           |
|  \\    /   O peration     | Version:  2206                                  |
|   \\  /    A nd           | Website:  www.openfoam.com                      |
|    \\/     M anipulation  |                                                 |
\*---------------------------------------------------------------------------*/
FoamFile
{
    version     2.0;
    format      ascii;
    arch        "LSB;label=32;scalar=64";
    class       volScalarField;
    location    "0";
    object      yPlus;
}
// * * * * * * * * * * * * * * * * * * * * * * * * * * * * * * * * * * * * * //

dimensions      [0 0 0 0 0 0 0];

internalField   uniform 0;

boundaryField
{
    Side
    {
        type            empty;
    }
    Top
    {
        type            calculated;
        value           uniform 0;
    }
    Inlet
    {
        type            calculated;
        value           uniform 0;
    }
    Floor
    {
        type            calculated;
        value           uniform 0;
    }
    Airfoil
    {
        type            calculated;
        value           nonuniform List<scalar> 
1703
(
5.8289871
5.8226601
5.8162831
5.8098557
5.8033759
5.7968354
5.7902338
5.7835783
5.7768725
5.7701101
5.7632776
5.7563907
5.7494487
5.7424466
5.7353794
5.7282489
5.7210611
5.7138154
5.7065071
5.6991234
5.691676
5.6841723
5.6766056
5.6689661
5.6612566
5.6534844
5.6744388
5.7069182
5.7001458
5.6926894
5.684438
5.6760301
5.6675161
5.6588891
5.6501527
5.6413075
5.6323518
5.6232843
5.6141033
5.6048042
5.5953792
5.5858358
5.576172
5.5663863
5.5564771
5.5588703
5.7426617
5.7368792
5.7310282
5.7251081
5.7191181
5.7130574
5.7069249
5.7007196
5.6944405
5.688083
5.6816475
5.6751352
5.6685455
5.6597475
5.6483967
5.8176552
5.8386846
5.8326884
5.826616
5.820472
5.8142553
5.807964
5.801598
5.7951575
5.7886405
5.7784977
5.7640374
5.865788
5.9747932
5.969364
5.9638785
5.958336
5.9527359
5.9470778
5.9413607
5.9355841
5.9297473
5.9225511
5.9133198
5.9560997
5.9769664
5.9718722
5.966718
5.9615034
5.9562309
5.9508987
5.9455062
5.9369263
5.9641734
6.019866
6.01701
6.0141237
6.0112117
6.0082744
6.0053114
6.0023226
5.9993078
5.9962676
5.9931308
6.0166806
6.0150421
6.0133817
6.0117059
6.0099974
6.0082732
5.9165593
5.8959295
5.875249
5.8545171
5.8337334
5.8128971
5.7920076
5.7710641
5.7500659
5.7290125
5.7079031
5.6867369
5.6655132
5.6442313
5.6228904
5.7551464
5.8929717
5.8836835
5.8743849
5.8650758
5.8557566
5.8464268
5.8370863
5.8277354
5.8183738
5.8088071
5.7983487
5.7871824
5.7760005
5.7648031
5.7545316
5.8426956
5.8364031
5.8301058
5.8238035
5.8174964
5.8111843
5.8048675
5.7985459
5.7922192
5.7858876
5.7795509
5.773024
5.7660954
5.758948
5.8637631
5.8776756
5.8769206
5.8761655
5.8754105
5.8746554
5.8739001
5.8731448
5.8707158
5.8652141
5.8583222
5.8514246
5.8445212
5.9409783
5.9867133
5.9901645
5.9936143
5.9970627
6.0005099
6.0004087
5.9958361
5.9903998
5.9849601
5.9795169
5.9740704
5.9686205
5.9631671
5.9621252
5.9952895
5.9935353
5.9917808
5.9895488
5.9858487
5.9811466
5.9764419
5.9717346
5.9670248
5.9623125
5.9575974
5.9528799
6.0196333
6.0250587
6.0280987
6.0274957
6.0251682
6.0228401
6.0205113
6.018182
6.015852
6.0135214
6.0111902
6.0088584
6.0065259
6.0041928
6.0018591
6.0108097
6.0197806
6.0194007
6.0182358
6.0170707
6.0159054
6.01474
6.0135744
6.0124087
6.0112428
6.0100767
5.8034551
5.780922
5.7583239
5.7356636
5.7129378
5.6901469
5.6672895
5.6443643
5.6213717
5.5983083
5.5751765
5.5362236
5.5099875
5.4876317
5.4652075
5.4427143
5.4201489
5.3975134
5.3748039
5.3520213
5.3291642
5.3062298
5.2762561
5.2453001
5.2231419
5.2009105
5.1786042
5.1562206
5.1337602
5.1112217
5.0886031
5.0659034
5.0431223
5.0202581
4.9878155
4.9655906
4.9433437
4.9210147
4.8986023
4.8761045
4.8532303
4.8305707
4.807822
4.7849829
4.7620518
4.7332312
4.7035477
4.6821026
4.6605737
4.63896
4.6172599
4.5954723
4.5735957
4.5516286
4.5295699
4.5074183
4.4851722
4.457209
4.4355274
4.414366
4.3931154
4.3717743
4.3503416
4.3288158
4.3071949
4.2854778
4.2636631
4.2417487
4.2185762
4.1952306
4.1746625
4.1540034
4.133252
4.1124066
4.0914658
4.070428
4.0492915
4.0280548
4.0067163
3.9852743
3.9642149
3.9448411
3.9256193
3.9063112
3.8869155
3.8674308
3.8478556
3.8281885
3.8084279
3.7885726
3.7686207
3.7507073
3.7336308
3.7156712
3.6976309
3.6795076
3.6613011
3.6430108
3.6246344
3.6061704
3.587618
3.5689749
3.5519749
3.540655
3.5246369
3.50855
3.4923942
3.4761679
3.4598701
3.4434994
3.427055
3.4105358
3.3939402
3.3772675
3.3730709
3.3598681
3.3463904
3.3328612
3.3192795
3.3056446
3.2919563
3.2782138
3.2644167
3.2505631
3.2366531
3.2339473
3.2241163
3.2130754
3.2019986
3.1908849
3.1797335
3.1685451
3.1573182
3.1460536
3.1347506
3.1234074
3.1276309
3.1218483
3.1144977
3.1071298
3.0997443
3.0923431
3.0849249
3.0774893
3.070036
3.0625654
3.0550779
3.0661646
3.0634484
3.0606906
3.0579314
3.0551699
3.0524058
3.0496386
3.0468697
3.0440984
3.0413245
3.0414246
3.048016
3.0488656
3.0497152
3.0505638
3.0514127
3.0522614
3.0531099
3.0539576
3.0548059
3.0556539
3.0616289
3.0680009
3.0730515
3.0780942
3.0831281
3.0881549
3.0931739
3.0981847
3.1031878
3.1081837
3.1131717
5.7866798
5.780296
5.7739074
5.7675138
5.7611152
5.7547116
5.7483028
5.7418892
5.7354703
5.7181581
5.7015476
5.6959729
5.6903942
5.6848116
5.6792249
5.6736344
5.66804
5.6624417
5.6568393
5.6524264
5.6478787
5.6421565
5.6364302
5.6306996
5.6249647
5.6192256
5.6134823
5.6077347
5.6019827
5.5958225
5.5778725
5.5728228
5.5677697
5.5627133
5.5576536
5.5525903
5.5475237
5.5424537
5.5373803
5.5323035
5.5273049
5.5226988
5.5175722
5.512442
5.5073083
5.5021708
5.4970299
5.4918854
5.4867373
5.4815856
5.4764304
5.4712714
5.4553153
5.4492349
5.4452093
5.4411816
5.4371516
5.4331192
5.4290846
5.425048
5.4210089
5.4169675
5.412924
5.4089212
5.4050006
5.4009291
5.3968554
5.3927792
5.3887007
5.38462
5.3805368
5.3764512
5.3723633
5.3682731
5.3641805
5.3582717
5.3498396
5.3469007
5.3439608
5.3410197
5.3380772
5.3351336
5.3321887
5.3292424
5.3262949
5.3233463
5.3203964
5.3173556
5.3132202
5.3106536
5.308086
5.3055174
5.302948
5.3003777
5.2978065
5.2952343
5.292661
5.2900868
5.2875117
5.2849357
5.2821488
5.2796311
5.2774165
5.2752013
5.2729853
5.2707687
5.2685512
5.266333
5.2641143
5.2618946
5.2596742
5.2574532
5.2552315
5.2537009
5.2522993
5.2509297
5.2495597
5.2481896
5.246819
5.2454482
5.2440773
5.2427063
5.2413347
5.2399629
5.238591
5.2372187
5.237114
5.2364269
5.2356279
5.2348286
5.2340292
5.2332298
5.2324303
5.2316307
5.2308309
5.2300313
5.2292317
5.2284317
5.2276316
5.2284746
5.2287847
5.2285692
5.2283535
5.2281379
5.2279223
5.2277065
5.2274908
5.2272754
5.2270598
5.2268441
5.2266284
5.2264127
5.2272324
5.2292733
5.2296482
5.2300228
5.2303977
5.2307724
5.2311471
5.2315216
5.2318962
5.2322711
5.2326458
5.2330204
5.233395
5.2337696
5.2350972
5.2358797
5.2364434
5.2370068
5.2375705
5.238134
5.2386977
5.2392611
5.2398245
5.2403879
5.2409513
5.2415147
5.2420779
5.2427159
5.2441615
5.2448503
5.2455392
5.2462279
5.2469165
5.247605
5.2482936
5.2489822
5.2496706
5.2503589
5.2510471
5.2517353
5.2524235
5.2533178
5.2547657
5.255565
5.2563642
5.2571633
5.2579622
5.258761
5.2595599
5.2603586
5.261157
5.2619557
5.2627541
5.2635526
5.2643508
5.2652463
5.2663972
5.267243
5.2680888
5.2689343
5.2697799
5.2706253
5.2714706
5.2723158
5.2731611
5.2740061
5.2748509
5.2756956
5.2765403
5.277374
5.2781188
5.2789521
5.2797852
5.2806183
5.2814512
5.2822838
5.2831167
5.2839493
5.2847818
5.2856142
5.2864465
5.2872787
5.288111
5.2889431
5.2899982
5.2908861
5.2917433
5.2926004
5.2934573
5.294314
5.2951708
5.2960274
5.296884
5.2977406
5.298597
5.2994532
5.3003093
5.3011653
5.3027367
5.3042755
5.3052613
5.3062468
5.3072323
5.3082177
5.3092029
5.3101881
5.311173
5.3121577
5.3131424
5.3141269
5.3151113
5.3160955
5.3173613
5.3203901
5.3216034
5.3228166
5.3240294
5.325242
5.3264543
5.3276665
5.3288785
5.3300902
5.3313017
5.332513
5.3337242
5.3349353
5.3361461
5.3388493
5.3410653
5.3425198
5.343974
5.3454278
5.3468814
5.3483349
5.3497879
5.3512406
5.3526929
5.3541451
5.3555969
5.3570483
5.3584994
5.3601277
5.3634408
5.3651161
5.3667912
5.3684657
5.3701399
5.3718135
5.3734869
5.37516
5.3768325
5.3785047
5.3801765
5.3818477
5.3835188
5.3851895
5.3876857
5.3902981
5.3921705
5.3940424
5.3959138
5.3977848
5.3996553
5.4015253
5.4033947
5.4052637
5.4071321
5.4090002
5.4108677
5.4127347
5.4146011
5.417579
5.4197762
5.4218175
5.4238582
5.4258982
5.4279378
5.4299767
5.432015
5.4340528
5.4360899
5.4381265
5.4401626
5.4421981
5.4442329
5.446461
5.4492846
5.4514684
5.4536515
5.4558341
5.4580159
5.460197
5.4623775
5.4645575
5.4667366
5.4689151
5.4710931
5.4732704
5.475447
5.4776229
5.4802475
5.4828987
5.4852342
5.4875689
5.4899029
5.4922361
5.4945685
5.4969003
5.4992314
5.5015617
5.5038911
5.5062198
5.508548
5.5108753
5.5132018
5.5162204
5.5188354
5.5213647
5.5238931
5.5264207
5.5289475
5.5314735
5.5339984
5.5365225
5.5390459
5.5415683
5.5440899
5.5466106
5.5491303
5.5517651
5.5548019
5.5575523
5.5603016
5.5630499
5.5657973
5.5685438
5.5712892
5.5740336
5.5767771
5.5795195
5.5822607
5.5850012
5.5877406
5.5904789
5.5933376
5.5962682
5.5992027
5.6021363
5.6050687
5.6079999
5.6109301
5.613859
5.6167869
5.6197134
5.6226391
5.6255637
5.6284871
5.6314092
5.6343303
5.6371873
5.6402366
5.6433059
5.646374
5.6494409
5.6525067
5.6555713
5.6586344
5.6616963
5.6647572
5.6678169
5.6708754
5.6739326
5.6769886
5.6799465
5.6828414
5.6860455
5.6892482
5.6924496
5.69565
5.6988489
5.7020464
5.7052427
5.7084378
5.7116315
5.7148238
5.7180148
5.7212048
5.7243935
5.7270067
5.730208
5.7335896
5.7369699
5.7403487
5.7437259
5.7471018
5.7504763
5.7538494
5.757221
5.7605913
5.7639602
5.7673276
5.7706936
5.7736502
5.7762802
5.7798704
5.7834589
5.7870458
5.7906312
5.7942149
5.7977972
5.8013778
5.8049569
5.8085343
5.8121103
5.8156846
5.8192574
5.8228286
5.8250853
5.8287731
5.832535
5.8362953
5.8400539
5.8438107
5.8475659
5.8513194
5.8550713
5.8588214
5.8625696
5.8663163
5.8700614
5.8738048
5.8767233
5.8800986
5.8839839
5.8878675
5.8917493
5.8956292
5.8995072
5.9033836
5.9072582
5.911131
5.915002
5.9188712
5.9227388
5.9266045
5.9298331
5.932921
5.9369236
5.9409244
5.9449232
5.9489201
5.9529153
5.9569086
5.9609002
5.9648898
5.9688776
5.9728635
5.9768476
5.98083
5.9840804
5.9866294
5.9907916
5.9949519
5.9991101
6.0032663
6.0074204
6.0115728
6.0157232
6.0198716
6.0240183
6.0281627
6.0323053
6.0364459
6.0395225
6.0417047
6.0460665
6.0504264
6.054784
6.0591396
6.0634931
6.0678444
6.0721937
6.0765407
6.0808857
6.0852287
6.0895695
6.0939082
6.0963696
6.0988477
6.1034326
6.1080151
6.1125955
6.1171735
6.1217491
6.1263224
6.1308935
6.1354625
6.1400289
6.1445932
6.1491553
6.1537152
6.1547513
6.1584772
6.1633
6.1681204
6.1729384
6.1777538
6.1825666
6.1873771
6.1921851
6.1969905
6.2017936
6.2065943
6.2113925
6.2153078
6.2168073
6.2218274
6.2268448
6.2318596
6.2368717
6.241881
6.2468879
6.2518921
6.2568937
6.2618927
6.266889
6.271883
6.2768742
6.2810963
6.2859414
6.290973
6.2960017
6.3010281
6.3060521
6.3110731
6.3160918
6.3211079
6.3261214
6.3311324
6.3361408
6.3411469
6.3478891
6.3540151
6.3588711
6.3637247
6.368576
6.3734249
6.3782716
6.383116
6.3879579
6.3927975
6.3976349
6.40247
6.4073027
6.4159806
6.423599
6.4281042
6.4326075
6.4371088
6.4416082
6.4461056
6.450601
6.4550945
6.459586
6.4640756
6.4685633
6.4730492
6.4853355
6.4920945
6.4960875
6.500079
6.5040687
6.508057
6.512044
6.5160295
6.5200135
6.5239958
6.5279767
6.5319561
6.5379768
6.5533215
6.5566597
6.5599967
6.5633326
6.5666677
6.5700017
6.5733346
6.5766666
6.5799976
6.5833276
6.5866566
6.5899844
6.6055109
6.6114304
6.6140093
6.6165877
6.6191654
6.6217426
6.6243191
6.6268952
6.6294705
6.6320454
6.6346195
6.6371932
6.6505518
6.6575726
6.6593447
6.6611164
6.6628878
6.6646589
6.6664297
6.6682003
6.6699707
6.6717408
6.6735106
6.6752799
6.6900135
6.6937609
6.6946877
6.6956143
6.6965409
6.6974675
6.698394
6.6993203
6.7002466
6.7011729
6.7020993
6.7066966
6.7185362
6.7186021
6.718668
6.7187337
6.7187998
6.7188656
6.7189316
6.7189976
6.7190635
6.7191293
6.7191953
6.7312862
6.7313219
6.7305741
6.7298263
6.7290784
6.7283303
6.7275824
6.7268343
6.7260862
6.7253381
6.7245899
6.7338255
6.7330344
6.7315302
6.7300256
6.7285211
6.7270162
6.7255113
6.7240059
6.7225005
6.720995
6.7216659
6.7265216
6.7243152
6.7221084
6.7199011
6.7176934
6.7154854
6.713277
6.7110682
6.7088586
6.7066488
6.7106385
6.7086771
6.7058106
6.7029433
6.7000752
6.6972064
6.6943371
6.691467
6.6885961
6.6857244
6.687774
6.6851038
6.6815933
6.6780819
6.6745691
6.6710551
6.6675405
6.6640247
6.6605075
6.657948
6.6576088
6.6534799
6.6493498
6.6452182
6.6410848
6.6369497
6.6328137
6.6286758
6.6245363
6.6231181
6.61856
6.6138527
6.6091436
6.6044326
6.5997194
6.5950044
6.5902871
6.5857198
6.5820366
6.5769229
6.571807
6.5666886
6.5615677
6.5564444
6.5513188
6.5461907
6.5411806
6.536014
6.530773
6.5255296
6.5202837
6.5150351
6.5097838
6.5045302
6.4992808
6.4938936
6.4884803
6.4830639
6.4776448
6.4722229
6.4667984
6.4607685
6.4535618
6.447221
6.4408761
6.4345272
6.4281745
6.4218179
6.4115779
6.3998339
6.3919358
6.3840318
6.3761218
6.3682053
6.3594481
6.3477234
6.3392591
6.3307879
6.3223093
6.3138235
6.3209741
6.3262019
6.321255
6.3163058
6.311354
6.3201986
6.3172502
6.3188176
6.320385
6.3113639
6.2740693
6.2831556
6.2922337
6.1984121
6.2083442
6.190617
6.1289246
6.1081085
3.1144344
3.1133607
3.1122864
3.1112118
3.110137
3.1090618
3.1079862
3.1069104
3.1058341
3.104713
3.1034516
3.1049058
3.1063596
3.1078128
3.1092651
3.110717
3.1121684
3.1136187
3.1150685
3.1164989
3.1175923
3.1196972
3.1218008
3.1239036
3.126005
3.1281049
3.1302035
3.1323007
3.1343966
3.1364913
3.1384665
3.1406433
3.1429309
3.1452171
3.1475019
3.1497847
3.152066
3.1543457
3.1566238
3.1589006
3.1610957
3.162817
3.1657249
3.1686302
3.1715329
3.1744331
3.177331
3.1802261
3.1831188
3.1860091
3.1888966
3.1913296
3.1935508
3.1974513
3.2013471
3.2052382
3.2091254
3.213008
3.2168857
3.2207591
3.2246282
3.2284928
3.2318315
3.2349061
3.239677
3.2444415
3.2491995
3.2539504
3.2586947
3.2634326
3.2681639
3.2728889
3.2776071
3.2821129
3.2858109
3.2911458
3.2964727
3.3017911
3.3071015
3.3124038
3.3176978
3.322984
3.3282622
3.3335327
3.3387951
3.3431651
3.3485945
3.3542874
3.3599714
3.3656466
3.3713126
3.3769694
3.3826174
3.3882563
3.3938862
3.3995077
3.4046465
3.4095074
3.4156263
3.421735
3.4278332
3.4339211
3.4399993
3.4460673
3.452125
3.4581728
3.4642105
3.4702383
3.4748856
3.4808563
3.4874793
3.4940905
3.5006901
3.507278
3.5138545
3.5204196
3.526973
3.5335147
3.5400451
3.5465171
3.5507906
3.5579765
3.5651487
3.5723072
3.5794524
3.5865841
3.5937031
3.6008088
3.6079009
3.6149799
3.6220461
3.6285445
3.6336231
3.6413721
3.6491057
3.656824
3.6645271
3.6722151
3.6798882
3.6875465
3.6951903
3.7028193
3.7104336
3.7170771
3.7228849
3.7311812
3.7394607
3.7477235
3.7559695
3.7641985
3.7724108
3.7806066
3.7887862
3.7969495
3.8050965
3.8121421
3.8187284
3.8274639
3.8361808
3.844879
3.8535597
3.8622225
3.8708673
3.8794946
3.8881042
3.8966963
3.9052714
3.9127828
3.9199622
3.9290222
3.938063
3.9470847
3.9560878
3.9650724
3.9740385
3.9829865
3.9919158
4.000827
4.0097204
4.0174554
4.0248145
4.0341944
4.0435542
4.0528944
4.0622154
4.0715171
4.0807995
4.0900632
4.099308
4.1085336
4.1177408
4.1254811
4.132719
4.1425064
4.1522729
4.1620187
4.1717442
4.1814496
4.1911348
4.2008
4.2104454
4.2200712
4.2296775
4.237509
4.2448809
4.2551128
4.2653231
4.2755119
4.2856789
4.2958246
4.3059493
4.3160529
4.3261358
4.3361979
4.3462397
4.3545214
4.3627754
4.3733169
4.3838363
4.3943334
4.4048087
4.4152625
4.4256945
4.436105
4.4464944
4.4568625
4.4672097
4.4758798
4.4851595
4.4958523
4.5065232
4.5171724
4.5277998
4.5384056
4.5489902
4.5595536
4.5700956
4.5806171
4.5911178
4.599424
4.6094383
4.6202597
4.6310594
4.6418375
4.6525943
4.6633301
4.6740452
4.6847389
4.695412
4.706065
4.716607
4.7233731
4.7344541
4.7455131
4.7565507
4.7675668
4.7785614
4.7895347
4.8004871
4.8114188
4.8223295
4.8332196
4.84211
4.8502567
4.8619507
4.8733336
4.8846942
4.8960332
4.9073508
4.9186469
4.9299216
4.9411752
4.952408
4.9636195
4.9705151
4.9817522
4.993413
5.0050513
5.0166681
5.028263
5.039836
5.0513879
5.0629185
5.0744278
5.0859165
5.095147
5.105117
5.1169483
5.1287576
5.1405454
5.1523118
5.1640568
5.1757807
5.1874836
5.1991654
5.2108268
5.2210647
5.230602
5.2425548
5.254486
5.2663961
5.2782857
5.290154
5.3020014
5.3138287
5.3256356
5.3374223
5.3474725
5.3567133
5.3688446
5.3809549
5.3930442
5.4051127
5.4171611
5.4291887
5.4411959
5.4531835
5.4651512
5.4739198
5.4839778
5.4963521
5.5087052
5.5210376
5.5333497
5.5456409
5.557912
5.5701631
5.5823943
5.5944934
5.60128
5.6139101
5.6265192
5.6391078
5.6516758
5.6642232
5.6767504
5.6892573
5.7017443
5.7142114
5.7235991
5.7347745
5.7475413
5.7602879
5.7730142
5.7857204
5.7984064
5.8110725
5.8237195
5.836347
5.8469262
5.8581828
5.8710172
5.8838318
5.896627
5.9094026
5.9221591
5.9348965
5.9476146
5.9603142
5.970577
5.9826279
5.9955036
6.0083601
6.0211976
6.0340167
6.0468169
6.0595989
6.0723628
6.0842275
6.0938895
6.106878
6.1198479
6.1327998
6.1457333
6.1586486
6.1715459
6.1844255
6.1972872
6.2053364
6.2184297
6.2315619
6.2446763
6.2577729
6.2708519
6.2839129
6.2969561
6.3095987
6.3176238
6.3309607
6.3442796
6.3575808
6.3708644
6.3841302
6.3973787
6.4106098
6.4215584
6.4324618
6.4459307
6.4593822
6.4728162
6.4862329
6.4996323
6.5130144
6.5254728
6.5360136
6.5495695
6.5631082
6.57663
6.590135
6.6036233
6.6170952
6.6294896
6.6410962
6.6546891
6.6682654
6.6818253
6.6953684
6.7088955
6.7224069
6.7329821
6.7461289
6.7597836
6.773422
6.7870446
6.8006516
6.8142426
6.822858
6.8349025
6.8488117
6.8627049
6.8765821
6.8904435
6.9042115
6.9123633
6.9264789
6.9405785
6.9546621
6.9687297
6.9827815
6.9967951
7.0108076
7.024815
7.0388068
7.0527837
7.0667454
7.0791596
7.092804
7.1068168
7.1208144
7.1347971
7.1449291
7.1519174
7.1663905
7.1808484
7.1952911
7.2062999
7.2137981
7.2286844
7.243555
7.2584099
7.2814157
7.2985761
7.312883
7.3271758
7.3596719
7.3828874
7.3957865
7.4087604
7.4250242
7.4377154
7.4503959
7.3736211
7.3766028
7.3660666
7.1970891
7.2212358
7.0289018
6.9932803
6.8048744
6.7276894
6.5831576
)
;
    }
    Outlet
    {
        type            calculated;
        value           uniform 0;
    }
}


// ************************************************************************* //
