/*--------------------------------*- C++ -*----------------------------------*\
| =========                 |                                                 |
| \\      /  F ield         | OpenFOAM: The Open Source CFD Toolbox           |
|  \\    /   O peration     | Version:  2206                                  |
|   \\  /    A nd           | Website:  www.openfoam.com                      |
|    \\/     M anipulation  |                                                 |
\*---------------------------------------------------------------------------*/
FoamFile
{
    version     2.0;
    format      ascii;
    arch        "LSB;label=32;scalar=64";
    class       volScalarField;
    location    "0";
    object      yPlus;
}
// * * * * * * * * * * * * * * * * * * * * * * * * * * * * * * * * * * * * * //

dimensions      [0 0 0 0 0 0 0];

internalField   uniform 0;

boundaryField
{
    Side
    {
        type            empty;
    }
    Floor
    {
        type            calculated;
        value           uniform 0;
    }
    Inlet
    {
        type            calculated;
        value           uniform 0;
    }
    Top
    {
        type            calculated;
        value           uniform 0;
    }
    Airfoil
    {
        type            calculated;
        value           nonuniform List<scalar> 
558
(
7.2035943
7.3403639
7.3452152
7.3445688
7.3967671
7.4664351
7.5374921
7.5939638
7.6443143
7.6918676
7.7379644
7.7839168
7.8290974
7.8735752
7.9161846
7.9568987
7.9959965
8.0327248
8.0676404
8.1020957
8.1311505
8.162449
8.1894056
8.2140649
8.2413336
8.2597052
8.2805767
8.3035954
8.3130768
8.3297014
8.3481798
8.3498444
8.360418
8.3740468
8.3709822
8.3721798
8.3807124
8.3785725
8.3668317
8.3703961
8.3739599
8.346962
8.3452159
8.3440742
8.3281935
8.307225
8.301702
8.2961773
8.2652129
8.2514316
8.2421674
8.2302772
8.1979127
8.1857836
8.1736472
8.156628
8.130874
8.1168408
8.1027974
8.0857856
8.0659058
8.0510006
8.0360838
8.0221798
8.009319
7.9946458
7.9799609
7.9690733
7.9659241
7.9525321
7.9391304
7.927459
7.9308823
7.9190087
7.9071275
7.8952385
7.898917
7.8906213
7.8801601
7.869693
7.8690043
7.8662569
7.8570706
7.8478797
7.8422131
7.843951
7.8358008
7.827647
7.8194893
7.8211408
7.8151694
7.8078059
7.8004394
7.7984927
7.7981986
7.7916514
7.7851019
7.7785498
7.7886586
7.7832325
7.7777699
7.7723055
7.7773142
7.7821714
7.7779744
7.7737763
7.7700859
7.7833225
7.780212
7.7771009
7.7739893
7.7783108
7.7824181
7.7801393
7.7778602
7.7758339
7.7879469
7.7864956
7.7850442
7.7835926
7.7922635
7.8010068
7.8006365
7.8002662
7.8003884
7.8232624
7.8241478
7.8250333
7.8259187
7.8384342
7.8496491
7.8516303
7.8536112
7.8572281
7.8748818
7.8777189
7.8805555
7.8833917
7.8973418
7.9060451
7.9096733
7.9133008
7.9227506
7.9404875
7.9450343
7.94958
7.9541246
7.9809182
7.9873341
7.9929283
7.9985209
8.0218596
8.0365814
8.0433268
8.0500698
8.0700029
8.0929552
8.1009387
8.1089188
8.1251606
8.1527226
8.1618544
8.170982
8.183525
8.2052242
8.2149933
8.2247577
8.2351782
8.2474544
8.257332
8.2672048
8.2766628
8.2854997
8.2953025
8.3051007
8.3177261
8.330951
8.3409728
8.3509898
8.3716154
8.3859708
8.3965232
8.4087633
8.4343526
8.4455074
8.4566567
8.4826012
8.504888
8.5169446
8.5433225
8.6214922
8.6363932
8.6512847
8.7371907
8.763025
8.7806953
8.8557359
8.8963944
8.9167623
9.0189388
9.0772956
9.1016581
9.166009
9.2018994
9.2297644
9.3078788
9.3356751
9.4310141
9.5558097
9.5889958
9.6193308
9.6521661
9.785375
9.88409
9.9198951
9.9548965
10.037768
10.136382
10.16993
10.20431
10.359821
10.709473
11.21904
12.641067
12.586599
12.529392
12.469455
12.406797
12.341429
12.448302
12.860799
12.808964
12.754388
12.697081
12.637052
12.574313
13.150119
13.123491
13.077251
13.02826
12.976527
12.957414
13.623005
13.60116
13.576514
13.549073
13.518841
13.485825
13.626752
13.679562
13.655618
13.62888
13.599353
13.567042
13.866384
13.863777
13.857677
13.848767
13.837049
13.822524
13.823115
13.879842
13.872816
13.86298
13.850337
13.878039
13.854356
13.866171
13.875179
13.877411
13.805811
13.822819
13.837024
13.848421
13.85701
13.862788
13.838031
13.53061
13.564975
13.596561
13.625362
13.651371
13.545688
13.504722
13.536422
13.565336
13.591456
13.614779
13.530434
12.931406
12.985261
13.03638
13.084754
13.130375
13.045689
12.624448
12.685224
12.743281
12.79861
12.851201
12.901045
12.500178
12.504646
12.564375
12.621374
12.675634
12.727146
12.7759
12.379744
12.266032
12.110042
11.976376
11.861309
11.664157
11.556438
11.435586
11.256467
11.152168
11.047302
10.876124
10.774515
10.672687
10.496412
10.348607
10.252561
10.154946
9.9748167
9.880176
9.7880884
9.6859428
9.5109988
9.4236052
9.33596
9.2453312
9.0346243
8.9541738
8.8734765
8.792524
8.6375564
8.5354007
8.460614
8.3855743
8.2818295
8.1274698
8.060191
7.9926746
7.9249128
7.7915323
7.6843764
7.6257214
7.566853
7.5077652
7.3869387
7.3136794
7.262628
7.2113909
7.1599629
7.0429228
6.97576
6.9356257
6.8953614
6.8549642
6.7703536
6.7008768
6.6742458
6.6475517
6.6207935
6.5855082
6.527634
6.5117881
6.4959186
6.4800249
6.4641071
6.4321688
6.4185184
6.4157848
6.4130506
6.4103155
6.4075796
6.4072645
6.4150695
6.4228684
6.4306929
6.4399036
6.4535459
6.4671705
6.4804969
6.4947204
6.5098112
6.5248805
6.5397753
6.5550704
6.5705326
6.5859728
6.6007049
6.6170573
6.6339051
6.6507273
6.6661168
6.6842519
6.7033686
6.7224534
6.740084
6.7598429
6.7809808
6.8020806
6.8222357
6.8431649
6.8656487
6.8880909
6.9100583
6.9317075
6.9551087
6.9784662
7.0017244
7.0231672
7.047655
7.0720967
7.0964929
7.1190135
7.1436266
7.1694041
7.1951329
7.2197032
7.243793
7.271066
7.2982868
7.3254558
7.3489059
7.3775113
7.4063135
7.4350601
7.4614694
7.4890114
7.5194198
7.5497688
7.5796913
7.6061743
7.6379753
7.6697142
7.7013922
7.7305303
7.7614716
7.7943603
7.8271865
7.8592441
7.8884963
7.9225611
7.9565624
7.9905011
8.0204397
8.0536963
8.0891464
8.1245318
8.1582774
8.1888159
8.2258674
8.2628519
8.2997698
8.3318475
8.3685736
8.4068423
8.4450437
8.4814574
8.5168821
8.5560299
8.5951112
8.6341268
8.6684178
8.7081847
8.7480947
8.7879402
8.8237583
8.8616408
8.9027059
8.9437059
8.982346
9.0175865
9.0600656
9.1024785
9.1448124
9.1789841
9.2227228
9.2663948
9.3100014
9.3481762
9.3910612
9.4356931
9.4802597
9.5208143
9.5634508
9.6089009
9.6542869
9.6955097
9.737689
9.7841347
9.8305161
9.8719669
9.914202
9.9618497
10.009433
10.051217
10.095152
10.143989
10.194174
10.23693
10.28415
10.333982
10.383755
10.427158
10.477417
10.527871
10.576419
10.622839
10.67388
10.724863
10.770049
10.819806
10.871542
10.920247
10.965999
11.018646
11.071157
11.113493
11.167134
11.220719
11.266943
11.319502
11.3739
11.422845
11.475833
11.530832
11.581141
11.635421
11.690718
11.739584
11.795559
11.846659
11.894663
11.951745
11.999007
12.055385
12.113323
12.171213
12.227874
12.283282
12.33507
12.378322
12.42946
12.478024
12.555103
12.63224
12.735391
12.795965
12.71855
12.443474
11.920556
11.171322
)
;
    }
    Outlet
    {
        type            calculated;
        value           uniform 0;
    }
}


// ************************************************************************* //
