# y+ ()         
# Time          	patch           	min             	max             	average         
1500            	Floor	2.51805380e-02	2.50890062e+00	1.17839367e+00
1500            	Airfoil	7.14987553e-02	4.87409243e+00	1.40653816e+00
