# Force and moment coefficients
# dragDir       : (1.00000000e+00 0.00000000e+00 0.00000000e+00)
# sideDir       : (0.00000000e+00 0.00000000e+00 -1.00000000e+00)
# liftDir       : (0.00000000e+00 1.00000000e+00 0.00000000e+00)
# rollAxis      : (1.00000000e+00 0.00000000e+00 0.00000000e+00)
# pitchAxis     : (0.00000000e+00 0.00000000e+00 -1.00000000e+00)
# yawAxis       : (0.00000000e+00 1.00000000e+00 0.00000000e+00)
# magUInf       : 1.03413075e-01
# lRef          : 1.00000000e+00
# Aref          : 1.00000000e+00
# CofR          : (0.00000000e+00 0.00000000e+00 0.00000000e+00)
#
# Time          	Cd              	Cd(f)           	Cd(r)           	Cl              	Cl(f)           	Cl(r)           	CmPitch         	CmRoll          	CmYaw           	Cs              	Cs(f)           	Cs(r)           
1               	2.03655380e+01	2.47134276e+01	-4.34788960e+00	-2.90613172e+01	7.80862859e+00	-3.68699458e+01	2.23392872e+01	1.45306586e+01	1.01827690e+01	2.56732739e-19	1.01827690e+01	-1.01827690e+01
2               	1.13398125e+00	5.41622151e+00	-4.28224026e+00	-9.69846176e+00	1.35917531e+00	-1.10576371e+01	6.20840620e+00	4.84923088e+00	5.66990623e-01	1.73940675e-19	5.66990623e-01	-5.66990623e-01
3               	-4.43298576e+00	-2.82188903e+00	-1.61109673e+00	1.21079229e+00	-1.26025263e+00	2.47104492e+00	-1.86564877e+00	-6.05396146e-01	-2.21649288e+00	1.62829900e-19	-2.21649288e+00	2.21649288e+00
4               	-1.51308324e+00	-2.53203865e+00	1.01895542e+00	3.55099407e+00	-1.15583585e+00	4.70682992e+00	-2.93133289e+00	-1.77549704e+00	-7.56541618e-01	1.68903957e-19	-7.56541618e-01	7.56541618e-01
5               	4.49778350e-01	-3.82113976e-01	8.31892327e-01	1.21400630e+00	-3.52272264e-01	1.56627857e+00	-9.59275415e-01	-6.07003152e-01	2.24889175e-01	1.66845847e-19	2.24889175e-01	-2.24889175e-01
6               	2.84652868e-01	2.86279391e-01	-1.62652295e-03	-2.87905914e-01	-5.29875748e-03	-2.82607157e-01	1.38654200e-01	1.43952957e-01	1.42326434e-01	1.69230926e-19	1.42326434e-01	-1.42326434e-01
7               	1.23731834e-01	3.68018795e-01	-2.44286961e-01	-6.12305756e-01	1.08072051e-01	-7.20377807e-01	4.14224929e-01	3.06152878e-01	6.18659169e-02	1.68719651e-19	6.18659169e-02	-6.18659169e-02
8               	-2.25695162e-02	1.17953740e-01	-1.40523256e-01	-2.58476996e-01	9.13498919e-03	-2.67611985e-01	1.38373487e-01	1.29238498e-01	-1.12847581e-02	1.66683562e-19	-1.12847581e-02	1.12847581e-02
9               	2.07294918e-01	2.13864991e-01	-6.57007231e-03	-2.20435063e-01	5.63639452e-03	-2.26071457e-01	1.15853926e-01	1.10217531e-01	1.03647459e-01	1.64769425e-19	1.03647459e-01	-1.03647459e-01
10              	1.62652432e-01	1.53937661e-01	8.71477065e-03	-1.45222890e-01	-3.16066659e-02	-1.13616224e-01	4.10047793e-02	7.26114452e-02	8.13262158e-02	1.63636589e-19	8.13262158e-02	-8.13262158e-02
11              	1.71693390e-01	1.96321953e-01	-2.46285637e-02	-2.20950517e-01	-6.74464525e-03	-2.14205872e-01	1.03730613e-01	1.10475258e-01	8.58466948e-02	1.62217564e-19	8.58466948e-02	-8.58466948e-02
12              	7.92471473e-02	1.21375839e-01	-4.21286912e-02	-1.63504530e-01	-3.60325884e-02	-1.27471941e-01	4.57196765e-02	8.17522649e-02	3.96235736e-02	1.62100200e-19	3.96235736e-02	-3.96235736e-02
13              	9.15215032e-02	1.53166616e-01	-6.16451127e-02	-2.14811728e-01	-2.45959831e-02	-1.90215745e-01	8.28098811e-02	1.07405864e-01	4.57607516e-02	1.62116441e-19	4.57607516e-02	-4.57607516e-02
14              	5.43133969e-02	1.23320092e-01	-6.90066953e-02	-1.92326787e-01	-4.57844401e-02	-1.46542347e-01	5.03789537e-02	9.61633937e-02	2.71566985e-02	1.62560016e-19	2.71566985e-02	-2.71566985e-02
15              	7.39927601e-02	1.59631871e-01	-8.56391106e-02	-2.45270981e-01	-2.93401043e-02	-2.15930877e-01	9.32953864e-02	1.22635491e-01	3.69963800e-02	1.62463997e-19	3.69963800e-02	-3.69963800e-02
16              	5.91739213e-02	1.39944147e-01	-8.07702259e-02	-2.20714373e-01	-3.61947948e-02	-1.84519578e-01	7.41623918e-02	1.10357187e-01	2.95869607e-02	1.62450616e-19	2.95869607e-02	-2.95869607e-02
17              	7.58493879e-02	1.54292212e-01	-7.84428243e-02	-2.32735037e-01	-1.93963389e-02	-2.13338698e-01	9.69711793e-02	1.16367518e-01	3.79246939e-02	1.61973780e-19	3.79246939e-02	-3.79246939e-02
18              	6.96511195e-02	1.35796947e-01	-6.61458274e-02	-2.01942774e-01	-2.52857810e-02	-1.76656993e-01	7.56856061e-02	1.00971387e-01	3.48255597e-02	1.61680725e-19	3.48255597e-02	-3.48255597e-02
19              	7.88295101e-02	1.50286676e-01	-7.14571661e-02	-2.21743842e-01	-1.54156879e-02	-2.06328154e-01	9.54562332e-02	1.10871921e-01	3.94147551e-02	1.61169870e-19	3.94147551e-02	-3.94147551e-02
20              	7.40986216e-02	1.47168811e-01	-7.30701890e-02	-2.20239000e-01	-2.14521259e-02	-1.98786874e-01	8.86673739e-02	1.10119500e-01	3.70493108e-02	1.61046852e-19	3.70493108e-02	-3.70493108e-02
21              	7.48618518e-02	1.58599644e-01	-8.37377921e-02	-2.42337436e-01	-1.61382009e-02	-2.26199235e-01	1.05030517e-01	1.21168718e-01	3.74309259e-02	1.60765126e-19	3.74309259e-02	-3.74309259e-02
22              	7.04520499e-02	1.55264284e-01	-8.48122337e-02	-2.40076517e-01	-2.10807067e-02	-2.18995811e-01	9.89575520e-02	1.20038259e-01	3.52260250e-02	1.60824853e-19	3.52260250e-02	-3.52260250e-02
23              	6.77991269e-02	1.59294177e-01	-9.14950502e-02	-2.50789227e-01	-1.71606439e-02	-2.33628583e-01	1.08233970e-01	1.25394614e-01	3.38995635e-02	1.60680667e-19	3.38995635e-02	-3.38995635e-02
24              	6.61383437e-02	1.56367830e-01	-9.02294862e-02	-2.46597316e-01	-1.97498051e-02	-2.26847511e-01	1.03548853e-01	1.23298658e-01	3.30691719e-02	1.60731064e-19	3.30691719e-02	-3.30691719e-02
25              	6.29022613e-02	1.57183959e-01	-9.42816981e-02	-2.51465657e-01	-1.66000477e-02	-2.34865610e-01	1.09132781e-01	1.25732829e-01	3.14511307e-02	1.60554358e-19	3.14511307e-02	-3.14511307e-02
26              	6.37972005e-02	1.56971753e-01	-9.31745529e-02	-2.50146306e-01	-1.76747351e-02	-2.32471571e-01	1.07398418e-01	1.25073153e-01	3.18986003e-02	1.60478928e-19	3.18986003e-02	-3.18986003e-02
27              	6.06402482e-02	1.58057308e-01	-9.74170597e-02	-2.55474368e-01	-1.51099282e-02	-2.40364439e-01	1.12627256e-01	1.27737184e-01	3.03201241e-02	1.60305403e-19	3.03201241e-02	-3.03201241e-02
28              	6.30903405e-02	1.61673216e-01	-9.85828752e-02	-2.60256091e-01	-1.47460308e-02	-2.45510060e-01	1.15382015e-01	1.30128045e-01	3.15451702e-02	1.60176816e-19	3.15451702e-02	-3.15451702e-02
29              	5.95371847e-02	1.62325916e-01	-1.02788732e-01	-2.65114648e-01	-1.28904074e-02	-2.52224241e-01	1.19666917e-01	1.32557324e-01	2.97685923e-02	1.60099415e-19	2.97685923e-02	-2.97685923e-02
30              	6.17509382e-02	1.65514318e-01	-1.03763380e-01	-2.69277698e-01	-1.25578729e-02	-2.56719825e-01	1.22080976e-01	1.34638849e-01	3.08754691e-02	1.59954284e-19	3.08754691e-02	-3.08754691e-02
31              	5.75045437e-02	1.62965661e-01	-1.05461117e-01	-2.68426779e-01	-1.25022861e-02	-2.55924492e-01	1.21711103e-01	1.34213389e-01	2.87522719e-02	1.60041608e-19	2.87522719e-02	-2.87522719e-02
32              	6.01636099e-02	1.66906422e-01	-1.06742812e-01	-2.73649234e-01	-1.21031452e-02	-2.61546089e-01	1.24721472e-01	1.36824617e-01	3.00818049e-02	1.59926581e-19	3.00818049e-02	-3.00818049e-02
33              	5.63884844e-02	1.65483562e-01	-1.09095077e-01	-2.74578639e-01	-1.22888239e-02	-2.62289815e-01	1.25000496e-01	1.37289320e-01	2.81942422e-02	1.60156537e-19	2.81942422e-02	-2.81942422e-02
34              	5.92949261e-02	1.70826648e-01	-1.11531722e-01	-2.82358370e-01	-1.10243975e-02	-2.71333972e-01	1.30154787e-01	1.41179185e-01	2.96474630e-02	1.59990087e-19	2.96474630e-02	-2.96474630e-02
35              	5.58094110e-02	1.68230384e-01	-1.12420973e-01	-2.80651357e-01	-1.16217342e-02	-2.69029623e-01	1.28703944e-01	1.40325679e-01	2.79047055e-02	1.60309077e-19	2.79047055e-02	-2.79047055e-02
36              	5.79144298e-02	1.72290840e-01	-1.14376410e-01	-2.86667250e-01	-1.01835981e-02	-2.76483652e-01	1.33150027e-01	1.43333625e-01	2.89572149e-02	1.60059075e-19	2.89572149e-02	-2.89572149e-02
37              	5.47870922e-02	1.69897467e-01	-1.15110375e-01	-2.85007842e-01	-1.08665206e-02	-2.74141322e-01	1.31637400e-01	1.42503921e-01	2.73935461e-02	1.60413142e-19	2.73935461e-02	-2.73935461e-02
38              	5.64979260e-02	1.74318064e-01	-1.17820138e-01	-2.92138202e-01	-9.12973805e-03	-2.83008464e-01	1.36939363e-01	1.46069101e-01	2.82489630e-02	1.60080348e-19	2.82489630e-02	-2.82489630e-02
39              	5.39253919e-02	1.71932578e-01	-1.18007186e-01	-2.89939764e-01	-1.01316640e-02	-2.79808100e-01	1.34838218e-01	1.44969882e-01	2.69626959e-02	1.60459245e-19	2.69626959e-02	-2.69626959e-02
40              	5.50233431e-02	1.75800811e-01	-1.20777468e-01	-2.96578280e-01	-8.41774830e-03	-2.88160531e-01	1.39871392e-01	1.48289140e-01	2.75116716e-02	1.60085273e-19	2.75116716e-02	-2.75116716e-02
41              	5.34210622e-02	1.74291018e-01	-1.20869956e-01	-2.95160973e-01	-9.46322982e-03	-2.85697743e-01	1.38117257e-01	1.47580487e-01	2.67105311e-02	1.60487105e-19	2.67105311e-02	-2.67105311e-02
42              	5.40052622e-02	1.77702513e-01	-1.23697251e-01	-3.01399764e-01	-7.99463062e-03	-2.93405133e-01	1.42705251e-01	1.50699882e-01	2.70026311e-02	1.60115058e-19	2.70026311e-02	-2.70026311e-02
43              	5.30805343e-02	1.76748391e-01	-1.23667857e-01	-3.00416248e-01	-8.95861987e-03	-2.91457628e-01	1.41249504e-01	1.50208124e-01	2.65402671e-02	1.60469663e-19	2.65402671e-02	-2.65402671e-02
44              	5.28924740e-02	1.79452008e-01	-1.26559534e-01	-3.06011542e-01	-7.60090241e-03	-2.98410640e-01	1.45404869e-01	1.53005771e-01	2.64462370e-02	1.60081322e-19	2.64462370e-02	-2.64462370e-02
45              	5.28325680e-02	1.79001628e-01	-1.26169060e-01	-3.05170688e-01	-8.33671488e-03	-2.96833973e-01	1.44248629e-01	1.52585344e-01	2.64162840e-02	1.60359745e-19	2.64162840e-02	-2.64162840e-02
46              	5.22341680e-02	1.81069855e-01	-1.28835687e-01	-3.09905542e-01	-7.15525640e-03	-3.02750286e-01	1.47797515e-01	1.54952771e-01	2.61170840e-02	1.60024875e-19	2.61170840e-02	-2.61170840e-02
47              	5.26269588e-02	1.81142397e-01	-1.28515439e-01	-3.09657836e-01	-7.65508954e-03	-3.02002747e-01	1.47173828e-01	1.54828918e-01	2.63134794e-02	1.60211788e-19	2.63134794e-02	-2.63134794e-02
48              	5.13572498e-02	1.82533549e-01	-1.31176299e-01	-3.13709848e-01	-6.84590922e-03	-3.06863938e-01	1.50009015e-01	1.56854924e-01	2.56786249e-02	1.59959982e-19	2.56786249e-02	-2.56786249e-02
49              	5.22406074e-02	1.83332416e-01	-1.31091809e-01	-3.14424225e-01	-7.10286744e-03	-3.07321357e-01	1.50109245e-01	1.57212112e-01	2.61203037e-02	1.60053753e-19	2.61203037e-02	-2.61203037e-02
50              	5.08302555e-02	1.84201472e-01	-1.33371216e-01	-3.17572688e-01	-6.54553436e-03	-3.11027153e-01	1.52240809e-01	1.58786344e-01	2.54151278e-02	1.59921187e-19	2.54151278e-02	-2.54151278e-02
51              	5.22343736e-02	1.85507580e-01	-1.33273206e-01	-3.18780786e-01	-6.51433076e-03	-3.12266455e-01	1.52876062e-01	1.59390393e-01	2.61171868e-02	1.59922928e-19	2.61171868e-02	-2.61171868e-02
52              	5.07024484e-02	1.85816128e-01	-1.35113679e-01	-3.20929807e-01	-6.17194576e-03	-3.14757861e-01	1.54292958e-01	1.60464903e-01	2.53512242e-02	1.59932798e-19	2.53512242e-02	-2.53512242e-02
53              	5.22133452e-02	1.87533333e-01	-1.35319988e-01	-3.22853321e-01	-5.90402306e-03	-3.16949298e-01	1.55522638e-01	1.61426661e-01	2.61066726e-02	1.59826245e-19	2.61066726e-02	-2.61066726e-02
54              	5.05960470e-02	1.87466703e-01	-1.36870656e-01	-3.24337360e-01	-5.86407948e-03	-3.18473280e-01	1.56304600e-01	1.62168680e-01	2.52980235e-02	1.59943149e-19	2.52980235e-02	-2.52980235e-02
55              	5.19796994e-02	1.89507362e-01	-1.37527663e-01	-3.27035024e-01	-5.42624045e-03	-3.21608784e-01	1.58091272e-01	1.63517512e-01	2.59898497e-02	1.59734950e-19	2.59898497e-02	-2.59898497e-02
56              	5.03977781e-02	1.89138188e-01	-1.38740410e-01	-3.27878599e-01	-5.63923373e-03	-3.22239365e-01	1.58300066e-01	1.63939299e-01	2.51988890e-02	1.59948819e-19	2.51988890e-02	-2.51988890e-02
57              	5.15315591e-02	1.91378848e-01	-1.39847289e-01	-3.31226137e-01	-5.06922410e-03	-3.26156913e-01	1.60543844e-01	1.65613069e-01	2.57657796e-02	1.59675271e-19	2.57657796e-02	-2.57657796e-02
58              	5.02526035e-02	1.90881972e-01	-1.40629368e-01	-3.31511340e-01	-5.40959091e-03	-3.26101750e-01	1.60346079e-01	1.65755670e-01	2.51263017e-02	1.59963371e-19	2.51263017e-02	-2.51263017e-02
59              	5.11243438e-02	1.93080384e-01	-1.41956040e-01	-3.35036424e-01	-4.73782916e-03	-3.30298595e-01	1.62780383e-01	1.67518212e-01	2.55621719e-02	1.59647733e-19	2.55621719e-02	-2.55621719e-02
60              	5.02767592e-02	1.92605031e-01	-1.42328272e-01	-3.34933303e-01	-5.12061304e-03	-3.29812690e-01	1.62346038e-01	1.67466651e-01	2.51383796e-02	1.59976733e-19	2.51383796e-02	-2.51383796e-02
61              	5.07375595e-02	1.94725417e-01	-1.43987857e-01	-3.38713274e-01	-4.46243801e-03	-3.34250836e-01	1.64894199e-01	1.69356637e-01	2.53687798e-02	1.59656310e-19	2.53687798e-02	-2.53687798e-02
62              	5.03709925e-02	1.94405313e-01	-1.44034321e-01	-3.38439634e-01	-4.86641306e-03	-3.33573220e-01	1.64353404e-01	1.69219817e-01	2.51854962e-02	1.59992544e-19	2.51854962e-02	-2.51854962e-02
63              	5.04031212e-02	1.96354628e-01	-1.45951507e-01	-3.42306134e-01	-4.27938431e-03	-3.38026750e-01	1.66873683e-01	1.71153067e-01	2.52015606e-02	1.59700062e-19	2.52015606e-02	-2.52015606e-02
64              	5.04496248e-02	1.96237391e-01	-1.45787766e-01	-3.42025156e-01	-4.64640077e-03	-3.37378756e-01	1.66366177e-01	1.71012578e-01	2.52248124e-02	1.60003864e-19	2.52248124e-02	-2.52248124e-02
65              	5.00033166e-02	1.97893666e-01	-1.47890350e-01	-3.45784016e-01	-4.16165201e-03	-3.41622364e-01	1.68730356e-01	1.72892008e-01	2.50016583e-02	1.59772677e-19	2.50016583e-02	-2.50016583e-02
66              	5.04075908e-02	1.98000090e-01	-1.47592499e-01	-3.45592590e-01	-4.42844296e-03	-3.41164147e-01	1.68367852e-01	1.72796295e-01	2.52037954e-02	1.60016031e-19	2.52037954e-02	-2.52037954e-02
67              	4.96227203e-02	1.99295960e-01	-1.49673239e-01	-3.48969199e-01	-4.08473873e-03	-3.44884460e-01	1.70399861e-01	1.74484600e-01	2.48113602e-02	1.59864308e-19	2.48113602e-02	-2.48113602e-02
68              	5.03467992e-02	1.99730870e-01	-1.49384071e-01	-3.49114941e-01	-4.19837738e-03	-3.44916563e-01	1.70359093e-01	1.74557470e-01	2.51733996e-02	1.60021323e-19	2.51733996e-02	-2.51733996e-02
69              	4.93042664e-02	2.00609358e-01	-1.51305091e-01	-3.51914449e-01	-4.00452590e-03	-3.47909923e-01	1.71952698e-01	1.75957224e-01	2.46521332e-02	1.59955410e-19	2.46521332e-02	-2.46521332e-02
70              	5.01916267e-02	2.01424124e-01	-1.51232497e-01	-3.52656621e-01	-3.98854882e-03	-3.48668072e-01	1.72339761e-01	1.76328310e-01	2.50958134e-02	1.60010167e-19	2.50958134e-02	-2.50958134e-02
71              	4.89793103e-02	2.01894157e-01	-1.52914847e-01	-3.54809004e-01	-3.96313486e-03	-3.50845869e-01	1.73441367e-01	1.77404502e-01	2.44896552e-02	1.60031661e-19	2.44896552e-02	-2.44896552e-02
72              	4.99714798e-02	2.03030258e-01	-1.53058778e-01	-3.56089036e-01	-3.79103510e-03	-3.52298000e-01	1.74253483e-01	1.78044518e-01	2.49857399e-02	1.59984576e-19	2.49857399e-02	-2.49857399e-02
73              	4.87669430e-02	2.03186791e-01	-1.54419848e-01	-3.57606639e-01	-3.92127411e-03	-3.53685365e-01	1.74882046e-01	1.78803320e-01	2.43834715e-02	1.60078614e-19	2.43834715e-02	-2.43834715e-02
74              	4.97584199e-02	2.04583732e-01	-1.54825312e-01	-3.59409044e-01	-3.60496196e-03	-3.55804082e-01	1.76099560e-01	1.79704522e-01	2.48792099e-02	1.59937443e-19	2.48792099e-02	-2.48792099e-02
75              	4.86749906e-02	2.04489519e-01	-1.55814529e-01	-3.60304048e-01	-3.87135915e-03	-3.56432689e-01	1.76280665e-01	1.80152024e-01	2.43374953e-02	1.60110311e-19	2.43374953e-02	-2.43374953e-02
76              	4.95448913e-02	2.06037440e-01	-1.56492548e-01	-3.62529988e-01	-3.42150005e-03	-3.59108488e-01	1.77843494e-01	1.81264994e-01	2.47724457e-02	1.59927702e-19	2.47724457e-02	-2.47724457e-02
77              	4.86515222e-02	2.05808723e-01	-1.57157201e-01	-3.62965924e-01	-3.79123828e-03	-3.59174685e-01	1.77691723e-01	1.81482962e-01	2.43257611e-02	1.60154727e-19	2.43257611e-02	-2.43257611e-02
78              	4.92717122e-02	2.07386297e-01	-1.58114585e-01	-3.65500882e-01	-3.27821696e-03	-3.62222665e-01	1.79472224e-01	1.82750441e-01	2.46358561e-02	1.59925348e-19	2.46358561e-02	-2.46358561e-02
79              	4.86375862e-02	2.07156593e-01	-1.58519006e-01	-3.65675599e-01	-3.71494845e-03	-3.61960650e-01	1.79122851e-01	1.82837799e-01	2.43187931e-02	1.60164414e-19	2.43187931e-02	-2.43187931e-02
80              	4.89184969e-02	2.08639644e-01	-1.59721147e-01	-3.68360791e-01	-3.19719112e-03	-3.65163600e-01	1.80983204e-01	1.84180395e-01	2.44592484e-02	1.59918127e-19	2.44592484e-02	-2.44592484e-02
81              	4.85886588e-02	2.08502928e-01	-1.59914269e-01	-3.68417196e-01	-3.63892961e-03	-3.64778267e-01	1.80569668e-01	1.84208598e-01	2.42943294e-02	1.60144591e-19	2.42943294e-02	-2.42943294e-02
82              	4.85240303e-02	2.09803467e-01	-1.61279436e-01	-3.71082903e-01	-3.16281143e-03	-3.67920091e-01	1.82378640e-01	1.85541451e-01	2.42620151e-02	1.59910869e-19	2.42620151e-02	-2.42620151e-02
83              	4.85150699e-02	2.09823529e-01	-1.61308459e-01	-3.71131988e-01	-3.54698666e-03	-3.67585002e-01	1.82019008e-01	1.85565994e-01	2.42575350e-02	1.60097018e-19	2.42575350e-02	-2.42575350e-02
84              	4.81435451e-02	2.10897233e-01	-1.62753688e-01	-3.73650921e-01	-3.16692981e-03	-3.70483991e-01	1.83658531e-01	1.86825460e-01	2.40717726e-02	1.59896887e-19	2.40717726e-02	-2.40717726e-02
85              	4.84301222e-02	2.11116170e-01	-1.62686048e-01	-3.73802219e-01	-3.45072200e-03	-3.70351497e-01	1.83450387e-01	1.86901109e-01	2.42150611e-02	1.60020049e-19	2.42150611e-02	-2.42150611e-02
86              	4.78092655e-02	2.11940365e-01	-1.64131100e-01	-3.76071465e-01	-3.19332532e-03	-3.72878140e-01	1.84842407e-01	1.88035732e-01	2.39046327e-02	1.59874314e-19	2.39046327e-02	-2.39046327e-02
87              	4.83412809e-02	2.12452074e-01	-1.64110793e-01	-3.76562867e-01	-3.36593142e-03	-3.73196936e-01	1.84915502e-01	1.88281434e-01	2.41706404e-02	1.59935446e-19	2.41706404e-02	-2.41706404e-02
88              	4.75376475e-02	2.12923113e-01	-1.65385466e-01	-3.78308579e-01	-3.23958190e-03	-3.75068997e-01	1.85914708e-01	1.89154290e-01	2.37688238e-02	1.59859179e-19	2.37688238e-02	-2.37688238e-02
89              	4.82505007e-02	2.13734076e-01	-1.65483576e-01	-3.79217652e-01	-3.27984668e-03	-3.75937806e-01	1.86328979e-01	1.89608826e-01	2.41252503e-02	1.59855686e-19	2.41252503e-02	-2.41252503e-02
90              	4.73346792e-02	2.13888260e-01	-1.66553581e-01	-3.80441841e-01	-3.30485680e-03	-3.77136984e-01	1.86916064e-01	1.90220920e-01	2.36673396e-02	1.59850051e-19	2.36673396e-02	-2.36673396e-02
91              	4.81313438e-02	2.15004584e-01	-1.66873241e-01	-3.81877825e-01	-3.20668451e-03	-3.78671141e-01	1.87732228e-01	1.90938913e-01	2.40656719e-02	1.59783710e-19	2.40656719e-02	-2.40656719e-02
92              	4.71525739e-02	2.14880469e-01	-1.67727895e-01	-3.82608364e-01	-3.39615051e-03	-3.79212213e-01	1.87908031e-01	1.91304182e-01	2.35762870e-02	1.59843668e-19	2.35762870e-02	-2.35762870e-02
93              	4.79408401e-02	2.16201981e-01	-1.68261141e-01	-3.84463122e-01	-3.16288561e-03	-3.81300236e-01	1.89068675e-01	1.92231561e-01	2.39704201e-02	1.59723018e-19	2.39704201e-02	-2.39704201e-02
94              	4.70132889e-02	2.15974045e-01	-1.68960756e-01	-3.84934801e-01	-3.49841899e-03	-3.81436382e-01	1.88968982e-01	1.92467401e-01	2.35066444e-02	1.59837345e-19	2.35066444e-02	-2.35066444e-02
95              	4.76695672e-02	2.17278511e-01	-1.69608944e-01	-3.86887454e-01	-3.16403567e-03	-3.83723419e-01	1.90279691e-01	1.93443727e-01	2.38347836e-02	1.59682062e-19	2.38347836e-02	-2.38347836e-02
96              	4.68736546e-02	2.16960112e-01	-1.70086457e-01	-3.87046569e-01	-3.59272223e-03	-3.83453846e-01	1.89930562e-01	1.93523284e-01	2.34368273e-02	1.59833064e-19	2.34368273e-02	-2.34368273e-02
97              	4.73726840e-02	2.18308696e-01	-1.70936012e-01	-3.89244707e-01	-3.17973087e-03	-3.86064976e-01	1.91442623e-01	1.94622354e-01	2.36863420e-02	1.59659876e-19	2.36863420e-02	-2.36863420e-02
98              	4.67863978e-02	2.18059402e-01	-1.71273004e-01	-3.89332406e-01	-3.67971619e-03	-3.85652690e-01	1.90986487e-01	1.94666203e-01	2.33931989e-02	1.59829191e-19	2.33931989e-02	-2.33931989e-02
99              	4.70702485e-02	2.19319877e-01	-1.72249629e-01	-3.91569506e-01	-3.24448832e-03	-3.88325018e-01	1.92540265e-01	1.95784753e-01	2.35351242e-02	1.59655257e-19	2.35351242e-02	-2.35351242e-02
100             	4.67273791e-02	2.19190619e-01	-1.72463239e-01	-3.91653858e-01	-3.75586029e-03	-3.87897998e-01	1.92071069e-01	1.95826929e-01	2.33636896e-02	1.59821961e-19	2.33636896e-02	-2.33636896e-02
101             	4.67644245e-02	2.20262481e-01	-1.73498057e-01	-3.93760538e-01	-3.34906341e-03	-3.90411474e-01	1.93531206e-01	1.96880269e-01	2.33822122e-02	1.59665471e-19	2.33822122e-02	-2.33822122e-02
102             	4.66886708e-02	2.20319322e-01	-1.73630652e-01	-3.93949974e-01	-3.80007688e-03	-3.90149897e-01	1.93174910e-01	1.96974987e-01	2.33443354e-02	1.59809197e-19	2.33443354e-02	-2.33443354e-02
103             	4.64988568e-02	2.21215105e-01	-1.74716248e-01	-3.95931353e-01	-3.46900335e-03	-3.92462350e-01	1.94496673e-01	1.97965676e-01	2.32494284e-02	1.59685277e-19	2.32494284e-02	-2.32494284e-02
104             	4.66511360e-02	2.21448871e-01	-1.74797735e-01	-3.96246606e-01	-3.83723330e-03	-3.92409373e-01	1.94286070e-01	1.98123303e-01	2.33255680e-02	1.59793695e-19	2.33255680e-02	-2.33255680e-02
105             	4.62708113e-02	2.22158871e-01	-1.75888060e-01	-3.98046931e-01	-3.61207452e-03	-3.94434857e-01	1.95411391e-01	1.99023466e-01	2.31354057e-02	1.59712286e-19	2.31354057e-02	-2.31354057e-02
106             	4.66137478e-02	2.22595278e-01	-1.75981530e-01	-3.98576809e-01	-3.88059389e-03	-3.94696215e-01	1.95407810e-01	1.99288404e-01	2.33068739e-02	1.59776739e-19	2.33068739e-02	-2.33068739e-02
107             	4.60911538e-02	2.23084502e-01	-1.76993348e-01	-4.00077851e-01	-3.76747836e-03	-3.96310372e-01	1.96271447e-01	2.00038925e-01	2.30455769e-02	1.59744435e-19	2.30455769e-02	-2.30455769e-02
108             	4.65635900e-02	2.23737632e-01	-1.77174042e-01	-4.00911675e-01	-3.91702806e-03	-3.96994647e-01	1.96538809e-01	2.00455837e-01	2.32817950e-02	1.59762652e-19	2.32817950e-02	-2.32817950e-02
109             	4.59451492e-02	2.23994614e-01	-1.78049465e-01	-4.02044079e-01	-3.92362512e-03	-3.98120454e-01	1.97098414e-01	2.01022039e-01	2.29725746e-02	1.59778647e-19	2.29725746e-02	-2.29725746e-02
110             	4.65015333e-02	2.24886995e-01	-1.78385462e-01	-4.03272456e-01	-3.94759025e-03	-3.99324866e-01	1.97688638e-01	2.01636228e-01	2.32507666e-02	1.59750524e-19	2.32507666e-02	-2.32507666e-02
111             	4.58195799e-02	2.24870373e-01	-1.79050793e-01	-4.03921167e-01	-4.08375858e-03	-3.99837408e-01	1.97876825e-01	2.01960583e-01	2.29097899e-02	1.59808636e-19	2.29097899e-02	-2.29097899e-02
112             	4.64051597e-02	2.25948239e-01	-1.79543079e-01	-4.05491317e-01	-3.97918752e-03	-4.01512130e-01	1.98766471e-01	2.02745659e-01	2.32025799e-02	1.59738061e-19	2.32025799e-02	-2.32025799e-02
113             	4.57568023e-02	2.25841553e-01	-1.80084750e-01	-4.05926303e-01	-4.22985115e-03	-4.01696452e-01	1.98733300e-01	2.02963152e-01	2.28784011e-02	1.59831139e-19	2.28784011e-02	-2.28784011e-02
114             	4.62909006e-02	2.26974405e-01	-1.80683505e-01	-4.07657910e-01	-4.03077637e-03	-4.03627134e-01	1.99798179e-01	2.03828955e-01	2.31454503e-02	1.59730022e-19	2.31454503e-02	-2.31454503e-02
115             	4.57218749e-02	2.26774621e-01	-1.81052746e-01	-4.07827368e-01	-4.38043860e-03	-4.03446929e-01	1.99533245e-01	2.03913684e-01	2.28609375e-02	1.59845700e-19	2.28609375e-02	-2.28609375e-02
116             	4.61487146e-02	2.27919919e-01	-1.81771204e-01	-4.09691123e-01	-4.11356895e-03	-4.05577554e-01	2.00731993e-01	2.04845562e-01	2.30743573e-02	1.59724974e-19	2.30743573e-02	-2.30743573e-02
117             	4.57410248e-02	2.27837908e-01	-1.82096883e-01	-4.09934792e-01	-4.52006380e-03	-4.05414728e-01	2.00447332e-01	2.04967396e-01	2.28705124e-02	1.59848714e-19	2.28705124e-02	-2.28705124e-02
118             	4.60074350e-02	2.28913507e-01	-1.82906072e-01	-4.11819578e-01	-4.24263904e-03	-4.07576939e-01	2.01667150e-01	2.05909789e-01	2.30037175e-02	1.59721561e-19	2.30037175e-02	-2.30037175e-02
119             	4.57755801e-02	2.28910046e-01	-1.83134466e-01	-4.12044512e-01	-4.66579417e-03	-4.07378718e-01	2.01356462e-01	2.06022256e-01	2.28877901e-02	1.59840731e-19	2.28877901e-02	-2.28877901e-02
120             	4.58589770e-02	2.29862299e-01	-1.84003322e-01	-4.13865621e-01	-4.40921223e-03	-4.09456409e-01	2.02523598e-01	2.06932811e-01	2.29294885e-02	1.59720270e-19	2.29294885e-02	-2.29294885e-02
121             	4.58097796e-02	2.29980978e-01	-1.84171198e-01	-4.14152176e-01	-4.80618327e-03	-4.09345992e-01	2.02269905e-01	2.07076088e-01	2.29048898e-02	1.59822714e-19	2.29048898e-02	-2.29048898e-02
122             	4.57096834e-02	2.30791456e-01	-1.85081773e-01	-4.15873228e-01	-4.62008272e-03	-4.11253146e-01	2.03316532e-01	2.07936614e-01	2.28548417e-02	1.59722784e-19	2.28548417e-02	-2.28548417e-02
123             	4.58304863e-02	2.31050495e-01	-1.85220008e-01	-4.16270503e-01	-4.95680513e-03	-4.11313698e-01	2.03178446e-01	2.08135252e-01	2.29152432e-02	1.59798005e-19	2.29152432e-02	-2.29152432e-02
124             	4.55786732e-02	2.31739834e-01	-1.86161161e-01	-4.17900996e-01	-4.85509308e-03	-4.13045903e-01	2.04095405e-01	2.08950498e-01	2.27893366e-02	1.59724393e-19	2.27893366e-02	-2.27893366e-02
125             	4.58412064e-02	2.32159370e-01	-1.86318163e-01	-4.18477533e-01	-5.12021674e-03	-4.13357316e-01	2.04118550e-01	2.09238766e-01	2.29206032e-02	1.59767752e-19	2.29206032e-02	-2.29206032e-02
126             	4.54656032e-02	2.32666315e-01	-1.87200712e-01	-4.19867026e-01	-5.11179659e-03	-4.14755230e-01	2.04821717e-01	2.09933513e-01	2.27328016e-02	1.59726328e-19	2.27328016e-02	-2.27328016e-02
127             	4.58296112e-02	2.33238033e-01	-1.87408422e-01	-4.20646456e-01	-5.28882153e-03	-4.15357634e-01	2.05034406e-01	2.10323228e-01	2.29148056e-02	1.59736374e-19	2.29148056e-02	-2.29148056e-02
128             	4.53873446e-02	2.33615879e-01	-1.88228535e-01	-4.21844414e-01	-5.37978840e-03	-4.16464625e-01	2.05542419e-01	2.10922207e-01	2.26936723e-02	1.59730614e-19	2.26936723e-02	-2.26936723e-02
129             	4.58021452e-02	2.34321646e-01	-1.88519501e-01	-4.22841148e-01	-5.46188471e-03	-4.17379263e-01	2.05958689e-01	2.11420574e-01	2.29010726e-02	1.59707835e-19	2.29010726e-02	-2.29010726e-02
130             	4.53157366e-02	2.34494780e-01	-1.89179043e-01	-4.23673823e-01	-5.65347616e-03	-4.18020347e-01	2.06183435e-01	2.11836911e-01	2.26578683e-02	1.59735598e-19	2.26578683e-02	-2.26578683e-02
131             	4.57590035e-02	2.35351413e-01	-1.89592409e-01	-4.24943822e-01	-5.63909036e-03	-4.19304732e-01	2.06832821e-01	2.12471911e-01	2.28795017e-02	1.59683827e-19	2.28795017e-02	-2.28795017e-02
132             	4.52836132e-02	2.35432109e-01	-1.90148496e-01	-4.25580605e-01	-5.92500952e-03	-4.19655596e-01	2.06865293e-01	2.12790303e-01	2.26418066e-02	1.59740234e-19	2.26418066e-02	-2.26418066e-02
133             	4.56985828e-02	2.36356336e-01	-1.90657753e-01	-4.27014089e-01	-5.82716981e-03	-4.21186920e-01	2.07679875e-01	2.13507045e-01	2.28492914e-02	1.59664720e-19	2.28492914e-02	-2.28492914e-02
134             	4.52847125e-02	2.36393837e-01	-1.91109124e-01	-4.27502961e-01	-6.18595906e-03	-4.21317002e-01	2.07565522e-01	2.13751481e-01	2.26423563e-02	1.59741019e-19	2.26423563e-02	-2.26423563e-02
135             	4.56148338e-02	2.37304431e-01	-1.91689597e-01	-4.28994028e-01	-6.03251935e-03	-4.22961509e-01	2.08464495e-01	2.14497014e-01	2.28074169e-02	1.59650579e-19	2.28074169e-02	-2.28074169e-02
136             	4.53140999e-02	2.37380103e-01	-1.92066003e-01	-4.29446106e-01	-6.43159680e-03	-4.23014509e-01	2.08291456e-01	2.14723053e-01	2.26570500e-02	1.59736941e-19	2.26570500e-02	-2.26570500e-02
137             	4.55067864e-02	2.38180174e-01	-1.92673388e-01	-4.30853562e-01	-6.26453747e-03	-4.24589025e-01	2.09162244e-01	2.15426781e-01	2.27533932e-02	1.59642369e-19	2.27533932e-02	-2.27533932e-02
138             	4.53602599e-02	2.38370963e-01	-1.93010703e-01	-4.31381665e-01	-6.65403970e-03	-4.24727626e-01	2.09036793e-01	2.15690833e-01	2.26801300e-02	1.59728038e-19	2.26801300e-02	-2.26801300e-02
139             	4.54047814e-02	2.39082215e-01	-1.93677434e-01	-4.32759648e-01	-6.51200973e-03	-4.26247639e-01	2.09867814e-01	2.16379824e-01	2.27023907e-02	1.59639478e-19	2.27023907e-02	-2.27023907e-02
140             	4.54025054e-02	2.39347801e-01	-1.93945296e-01	-4.33293098e-01	-6.87332198e-03	-4.26419776e-01	2.09773227e-01	2.16646549e-01	2.27012527e-02	1.59717258e-19	2.27012527e-02	-2.27012527e-02
141             	4.53066290e-02	2.39961744e-01	-1.94655115e-01	-4.34616858e-01	-6.77434049e-03	-4.27842518e-01	2.10534089e-01	2.17308429e-01	2.26533145e-02	1.59641396e-19	2.26533145e-02	-2.26533145e-02
142             	4.54376124e-02	2.40315391e-01	-1.94877779e-01	-4.35193170e-01	-7.08265153e-03	-4.28110519e-01	2.10513934e-01	2.17596585e-01	2.27188062e-02	1.59703310e-19	2.27188062e-02	-2.27188062e-02
143             	4.52183898e-02	2.40833038e-01	-1.95614648e-01	-4.36447686e-01	-7.04905723e-03	-4.29398629e-01	2.11174786e-01	2.18223843e-01	2.26091949e-02	1.59647649e-19	2.26091949e-02	-2.26091949e-02
144             	4.54569867e-02	2.41273546e-01	-1.95816559e-01	-4.37090105e-01	-7.28746367e-03	-4.29802641e-01	2.11257589e-01	2.18545052e-01	2.27284934e-02	1.59688556e-19	2.27284934e-02	-2.27284934e-02