# Force and moment coefficients
# dragDir       : (1.00000000e+00 0.00000000e+00 0.00000000e+00)
# sideDir       : (0.00000000e+00 0.00000000e+00 -1.00000000e+00)
# liftDir       : (0.00000000e+00 1.00000000e+00 0.00000000e+00)
# rollAxis      : (1.00000000e+00 0.00000000e+00 0.00000000e+00)
# pitchAxis     : (0.00000000e+00 0.00000000e+00 -1.00000000e+00)
# yawAxis       : (0.00000000e+00 1.00000000e+00 0.00000000e+00)
# magUInf       : 1.03413075e-01
# lRef          : 1.00000000e+00
# Aref          : 1.00000000e+00
# CofR          : (0.00000000e+00 0.00000000e+00 0.00000000e+00)
#
# Time          	Cd              	Cd(f)           	Cd(r)           	Cl              	Cl(f)           	Cl(r)           	CmPitch         	CmRoll          	CmYaw           	Cs              	Cs(f)           	Cs(r)           
1001            	2.60154729e-02	3.94939006e-01	-3.68923533e-01	-7.63862538e-01	-8.75826668e-02	-6.76279871e-01	2.94348602e-01	3.81931269e-01	1.30077365e-02	1.60300725e-19	1.30077365e-02	-1.30077365e-02
1002            	2.59920764e-02	3.95006015e-01	-3.69013939e-01	-7.64019954e-01	-8.76410833e-02	-6.76378871e-01	2.94368894e-01	3.82009977e-01	1.29960382e-02	1.60301027e-19	1.29960382e-02	-1.29960382e-02
1003            	2.59693479e-02	3.95067206e-01	-3.69097858e-01	-7.64165065e-01	-8.76903306e-02	-6.76474734e-01	2.94392202e-01	3.82082532e-01	1.29846739e-02	1.60301396e-19	1.29846739e-02	-1.29846739e-02
1004            	2.59533730e-02	3.95112560e-01	-3.69159187e-01	-7.64271747e-01	-8.77270536e-02	-6.76544693e-01	2.94408820e-01	3.82135873e-01	1.29766865e-02	1.60301551e-19	1.29766865e-02	-1.29766865e-02
1005            	2.59378065e-02	3.95154382e-01	-3.69216575e-01	-7.64370957e-01	-8.77627699e-02	-6.76608187e-01	2.94422709e-01	3.82185479e-01	1.29689033e-02	1.60301663e-19	1.29689033e-02	-1.29689033e-02
1006            	2.59216173e-02	3.95194842e-01	-3.69273225e-01	-7.64468067e-01	-8.77991537e-02	-6.76668913e-01	2.94434880e-01	3.82234033e-01	1.29608087e-02	1.60301800e-19	1.29608087e-02	-1.29608087e-02
1007            	2.59054333e-02	3.95237883e-01	-3.69332450e-01	-7.64570333e-01	-8.78369402e-02	-6.76733392e-01	2.94448226e-01	3.82285166e-01	1.29527167e-02	1.60301961e-19	1.29527167e-02	-1.29527167e-02
1008            	2.58891764e-02	3.95282005e-01	-3.69392829e-01	-7.64674835e-01	-8.78753886e-02	-6.76799446e-01	2.94462029e-01	3.82337417e-01	1.29445882e-02	1.60302158e-19	1.29445882e-02	-1.29445882e-02
1009            	2.58725286e-02	3.95328891e-01	-3.69456363e-01	-7.64785254e-01	-8.79149095e-02	-6.76870345e-01	2.94477718e-01	3.82392627e-01	1.29362643e-02	1.60302347e-19	1.29362643e-02	-1.29362643e-02
1010            	2.58557721e-02	3.95376058e-01	-3.69520286e-01	-7.64896344e-01	-8.79543030e-02	-6.76942041e-01	2.94493869e-01	3.82448172e-01	1.29278861e-02	1.60302532e-19	1.29278861e-02	-1.29278861e-02
1011            	2.58385694e-02	3.95422783e-01	-3.69584213e-01	-7.65006996e-01	-8.79940178e-02	-6.77012978e-01	2.94509480e-01	3.82503498e-01	1.29192847e-02	1.60302720e-19	1.29192847e-02	-1.29192847e-02
1012            	2.58212651e-02	3.95468218e-01	-3.69646953e-01	-7.65115171e-01	-8.80333976e-02	-6.77081773e-01	2.94524188e-01	3.82557585e-01	1.29106325e-02	1.60302908e-19	1.29106325e-02	-1.29106325e-02
1013            	2.58044819e-02	3.95512293e-01	-3.69707811e-01	-7.65220104e-01	-8.80717430e-02	-6.77148361e-01	2.94538309e-01	3.82610052e-01	1.29022410e-02	1.60303085e-19	1.29022410e-02	-1.29022410e-02
1014            	2.57874724e-02	3.95557580e-01	-3.69770108e-01	-7.65327687e-01	-8.81107836e-02	-6.77216904e-01	2.94553060e-01	3.82663844e-01	1.28937362e-02	1.60303268e-19	1.28937362e-02	-1.28937362e-02
1015            	2.57711355e-02	3.95601749e-01	-3.69830613e-01	-7.65432362e-01	-8.81487537e-02	-6.77283608e-01	2.94567427e-01	3.82716181e-01	1.28855678e-02	1.60303444e-19	1.28855678e-02	-1.28855678e-02
1016            	2.57549151e-02	3.95645475e-01	-3.69890560e-01	-7.65536035e-01	-8.81865136e-02	-6.77349522e-01	2.94581504e-01	3.82768018e-01	1.28774576e-02	1.60303608e-19	1.28774576e-02	-1.28774576e-02
1017            	2.57384539e-02	3.95688754e-01	-3.69950300e-01	-7.65639054e-01	-8.82243632e-02	-6.77414691e-01	2.94595164e-01	3.82819527e-01	1.28692269e-02	1.60303797e-19	1.28692269e-02	-1.28692269e-02
1018            	2.57218183e-02	3.95733681e-01	-3.70011862e-01	-7.65745543e-01	-8.82629980e-02	-6.77482545e-01	2.94609773e-01	3.82872771e-01	1.28609091e-02	1.60303977e-19	1.28609091e-02	-1.28609091e-02
1019            	2.57049570e-02	3.95780053e-01	-3.70075096e-01	-7.65855149e-01	-8.83022442e-02	-6.77552904e-01	2.94625330e-01	3.82927574e-01	1.28524785e-02	1.60304165e-19	1.28524785e-02	-1.28524785e-02
1020            	2.56885535e-02	3.95823901e-01	-3.70135347e-01	-7.65959248e-01	-8.83400308e-02	-6.77619218e-01	2.94639593e-01	3.82979624e-01	1.28442768e-02	1.60304336e-19	1.28442768e-02	-1.28442768e-02
1021            	2.56721598e-02	3.95866992e-01	-3.70194832e-01	-7.66061824e-01	-8.83775732e-02	-6.77684251e-01	2.94653339e-01	3.83030912e-01	1.28360799e-02	1.60304506e-19	1.28360799e-02	-1.28360799e-02
1022            	2.56557185e-02	3.95910396e-01	-3.70254677e-01	-7.66165073e-01	-8.84152916e-02	-6.77749781e-01	2.94667245e-01	3.83082536e-01	1.28278592e-02	1.60304679e-19	1.28278592e-02	-1.28278592e-02
1023            	2.56391676e-02	3.95954140e-01	-3.70314972e-01	-7.66269112e-01	-8.84532918e-02	-6.77815820e-01	2.94681264e-01	3.83134556e-01	1.28195838e-02	1.60304858e-19	1.28195838e-02	-1.28195838e-02
1024            	2.56232205e-02	3.95997123e-01	-3.70373902e-01	-7.66371025e-01	-8.84904535e-02	-6.77880572e-01	2.94695059e-01	3.83185513e-01	1.28116102e-02	1.60305031e-19	1.28116102e-02	-1.28116102e-02
1025            	2.56069264e-02	3.96041833e-01	-3.70434907e-01	-7.66476740e-01	-8.85282847e-02	-6.77948455e-01	2.94710085e-01	3.83238370e-01	1.28034632e-02	1.60305201e-19	1.28034632e-02	-1.28034632e-02
1026            	2.55902988e-02	3.96086584e-01	-3.70496286e-01	-7.66582870e-01	-8.85664648e-02	-6.78016405e-01	2.94724970e-01	3.83291435e-01	1.27951494e-02	1.60305398e-19	1.27951494e-02	-1.27951494e-02
1027            	2.55745819e-02	3.96129277e-01	-3.70554695e-01	-7.66683972e-01	-8.86030971e-02	-6.78080875e-01	2.94738889e-01	3.83341986e-01	1.27872909e-02	1.60305560e-19	1.27872909e-02	-1.27872909e-02
1028            	2.55580705e-02	3.96174470e-01	-3.70616400e-01	-7.66790870e-01	-8.86416545e-02	-6.78149216e-01	2.94753781e-01	3.83395435e-01	1.27790352e-02	1.60305743e-19	1.27790352e-02	-1.27790352e-02
1029            	2.55418306e-02	3.96216586e-01	-3.70674756e-01	-7.66891342e-01	-8.86788098e-02	-6.78212532e-01	2.94766861e-01	3.83445671e-01	1.27709153e-02	1.60305915e-19	1.27709153e-02	-1.27709153e-02
1030            	2.55256134e-02	3.96257958e-01	-3.70732344e-01	-7.66990302e-01	-8.87155786e-02	-6.78274723e-01	2.94779572e-01	3.83495151e-01	1.27628067e-02	1.60306081e-19	1.27628067e-02	-1.27628067e-02
1031            	2.55096135e-02	3.96300127e-01	-3.70790514e-01	-7.67090641e-01	-8.87522301e-02	-6.78338411e-01	2.94793090e-01	3.83545321e-01	1.27548068e-02	1.60306247e-19	1.27548068e-02	-1.27548068e-02
1032            	2.54935889e-02	3.96343114e-01	-3.70849525e-01	-7.67192639e-01	-8.87892378e-02	-6.78403401e-01	2.94807082e-01	3.83596320e-01	1.27467945e-02	1.60306420e-19	1.27467945e-02	-1.27467945e-02
1033            	2.54774272e-02	3.96386472e-01	-3.70909045e-01	-7.67295517e-01	-8.88265048e-02	-6.78469012e-01	2.94821254e-01	3.83647758e-01	1.27387136e-02	1.60306598e-19	1.27387136e-02	-1.27387136e-02
1034            	2.54617222e-02	3.96429094e-01	-3.70967372e-01	-7.67396466e-01	-8.88629172e-02	-6.78533549e-01	2.94835316e-01	3.83698233e-01	1.27308611e-02	1.60306757e-19	1.27308611e-02	-1.27308611e-02
1035            	2.54450614e-02	3.96472471e-01	-3.71027410e-01	-7.67499881e-01	-8.89009680e-02	-6.78598913e-01	2.94848972e-01	3.83749940e-01	1.27225307e-02	1.60306952e-19	1.27225307e-02	-1.27225307e-02
1036            	2.54296478e-02	3.96513316e-01	-3.71083668e-01	-7.67596983e-01	-8.89368426e-02	-6.78660141e-01	2.94861649e-01	3.83798492e-01	1.27148239e-02	1.60307118e-19	1.27148239e-02	-1.27148239e-02
1037            	2.54136663e-02	3.96555383e-01	-3.71141717e-01	-7.67697100e-01	-8.89736974e-02	-6.78723403e-01	2.94874853e-01	3.83848550e-01	1.27068332e-02	1.60307286e-19	1.27068332e-02	-1.27068332e-02
1038            	2.53980347e-02	3.96596309e-01	-3.71198274e-01	-7.67794582e-01	-8.90094762e-02	-6.78785106e-01	2.94887815e-01	3.83897291e-01	1.26990174e-02	1.60307446e-19	1.26990174e-02	-1.26990174e-02
1039            	2.53817240e-02	3.96638854e-01	-3.71257130e-01	-7.67895984e-01	-8.90466930e-02	-6.78849291e-01	2.94901299e-01	3.83947992e-01	1.26908620e-02	1.60307619e-19	1.26908620e-02	-1.26908620e-02
1040            	2.53660647e-02	3.96680172e-01	-3.71314107e-01	-7.67994278e-01	-8.90826414e-02	-6.78911637e-01	2.94914498e-01	3.83997139e-01	1.26830324e-02	1.60307785e-19	1.26830324e-02	-1.26830324e-02
1041            	2.53499410e-02	3.96722899e-01	-3.71372958e-01	-7.68095857e-01	-8.91195546e-02	-6.78976303e-01	2.94928374e-01	3.84047929e-01	1.26749705e-02	1.60307959e-19	1.26749705e-02	-1.26749705e-02
1042            	2.53343893e-02	3.96763298e-01	-3.71428909e-01	-7.68192207e-01	-8.91552095e-02	-6.79036998e-01	2.94940894e-01	3.84096104e-01	1.26671947e-02	1.60308119e-19	1.26671947e-02	-1.26671947e-02
1043            	2.53189148e-02	3.96804253e-01	-3.71485339e-01	-7.68289592e-01	-8.91909512e-02	-6.79098641e-01	2.94953845e-01	3.84144796e-01	1.26594574e-02	1.60308270e-19	1.26594574e-02	-1.26594574e-02
1044            	2.53029209e-02	3.96845774e-01	-3.71542853e-01	-7.68388626e-01	-8.92275115e-02	-6.79161115e-01	2.94966802e-01	3.84194313e-01	1.26514605e-02	1.60308455e-19	1.26514605e-02	-1.26514605e-02
1045            	2.52871271e-02	3.96887072e-01	-3.71599945e-01	-7.68487018e-01	-8.92638803e-02	-6.79223137e-01	2.94979628e-01	3.84243509e-01	1.26435635e-02	1.60308621e-19	1.26435635e-02	-1.26435635e-02
1046            	2.52716700e-02	3.96926369e-01	-3.71654699e-01	-7.68581068e-01	-8.92990996e-02	-6.79281969e-01	2.94991435e-01	3.84290534e-01	1.26358350e-02	1.60308768e-19	1.26358350e-02	-1.26358350e-02
1047            	2.52559253e-02	3.96966663e-01	-3.71710738e-01	-7.68677400e-01	-8.93348721e-02	-6.79342528e-01	2.95003828e-01	3.84338700e-01	1.26279627e-02	1.60308929e-19	1.26279627e-02	-1.26279627e-02
1048            	2.52405218e-02	3.97007036e-01	-3.71766514e-01	-7.68773549e-01	-8.93702626e-02	-6.79403287e-01	2.95016512e-01	3.84386775e-01	1.26202609e-02	1.60309089e-19	1.26202609e-02	-1.26202609e-02
1049            	2.52252394e-02	3.97046827e-01	-3.71821588e-01	-7.68868415e-01	-8.94052442e-02	-6.79463171e-01	2.95028964e-01	3.84434208e-01	1.26126197e-02	1.60309241e-19	1.26126197e-02	-1.26126197e-02
1050            	2.52092381e-02	3.97087987e-01	-3.71878749e-01	-7.68966737e-01	-8.94417186e-02	-6.79525018e-01	2.95041650e-01	3.84483368e-01	1.26046190e-02	1.60309409e-19	1.26046190e-02	-1.26046190e-02
1051            	2.51936898e-02	3.97127746e-01	-3.71934056e-01	-7.69061802e-01	-8.94771188e-02	-6.79584683e-01	2.95053782e-01	3.84530901e-01	1.25968449e-02	1.60309570e-19	1.25968449e-02	-1.25968449e-02
1052            	2.51784738e-02	3.97166704e-01	-3.71988230e-01	-7.69154933e-01	-8.95118233e-02	-6.79643110e-01	2.95065643e-01	3.84577467e-01	1.25892369e-02	1.60309704e-19	1.25892369e-02	-1.25892369e-02
1053            	2.51626954e-02	3.97207146e-01	-3.72044450e-01	-7.69251596e-01	-8.95478359e-02	-6.79703760e-01	2.95077962e-01	3.84625798e-01	1.25813477e-02	1.60309879e-19	1.25813477e-02	-1.25813477e-02
1054            	2.51471006e-02	3.97246929e-01	-3.72099828e-01	-7.69346757e-01	-8.95835234e-02	-6.79763233e-01	2.95089855e-01	3.84673378e-01	1.25735503e-02	1.60310036e-19	1.25735503e-02	-1.25735503e-02
1055            	2.51319720e-02	3.97285719e-01	-3.72153747e-01	-7.69439466e-01	-8.96182132e-02	-6.79821253e-01	2.95101520e-01	3.84719733e-01	1.25659860e-02	1.60310182e-19	1.25659860e-02	-1.25659860e-02
1056            	2.51164572e-02	3.97325241e-01	-3.72208784e-01	-7.69534025e-01	-8.96534568e-02	-6.79880569e-01	2.95113556e-01	3.84767013e-01	1.25582286e-02	1.60310333e-19	1.25582286e-02	-1.25582286e-02
1057            	2.51011108e-02	3.97363260e-01	-3.72262150e-01	-7.69625410e-01	-8.96879905e-02	-6.79937420e-01	2.95124715e-01	3.84812705e-01	1.25505554e-02	1.60310479e-19	1.25505554e-02	-1.25505554e-02
1058            	2.50857860e-02	3.97401054e-01	-3.72315268e-01	-7.69716322e-01	-8.97225532e-02	-6.79993769e-01	2.95135608e-01	3.84858161e-01	1.25428930e-02	1.60310626e-19	1.25428930e-02	-1.25428930e-02
1059            	2.50704955e-02	3.97440302e-01	-3.72369806e-01	-7.69810108e-01	-8.97575094e-02	-6.80052599e-01	2.95147545e-01	3.84905054e-01	1.25352478e-02	1.60310776e-19	1.25352478e-02	-1.25352478e-02
1060            	2.50555944e-02	3.97479547e-01	-3.72423952e-01	-7.69903499e-01	-8.97920232e-02	-6.80111476e-01	2.95159726e-01	3.84951749e-01	1.25277972e-02	1.60310927e-19	1.25277972e-02	-1.25277972e-02
1061            	2.50405102e-02	3.97519389e-01	-3.72478878e-01	-7.69998267e-01	-8.98268875e-02	-6.80171379e-01	2.95172246e-01	3.84999133e-01	1.25202551e-02	1.60311067e-19	1.25202551e-02	-1.25202551e-02
1062            	2.50250061e-02	3.97557810e-01	-3.72532804e-01	-7.70090613e-01	-8.98618922e-02	-6.80228721e-01	2.95183414e-01	3.85045307e-01	1.25125030e-02	1.60311235e-19	1.25125030e-02	-1.25125030e-02
1063            	2.50095430e-02	3.97595097e-01	-3.72585554e-01	-7.70180651e-01	-8.98965744e-02	-6.80284077e-01	2.95193751e-01	3.85090326e-01	1.25047715e-02	1.60311379e-19	1.25047715e-02	-1.25047715e-02
1064            	2.49942160e-02	3.97632989e-01	-3.72638773e-01	-7.70271761e-01	-8.99311734e-02	-6.80340588e-01	2.95204707e-01	3.85135881e-01	1.24971080e-02	1.60311523e-19	1.24971080e-02	-1.24971080e-02
1065            	2.49790434e-02	3.97672445e-01	-3.72693402e-01	-7.70365847e-01	-8.99661056e-02	-6.80399741e-01	2.95216818e-01	3.85182923e-01	1.24895217e-02	1.60311673e-19	1.24895217e-02	-1.24895217e-02
1066            	2.49645094e-02	3.97710134e-01	-3.72745625e-01	-7.70455759e-01	-8.99995118e-02	-6.80456248e-01	2.95228368e-01	3.85227880e-01	1.24822547e-02	1.60311806e-19	1.24822547e-02	-1.24822547e-02
1067            	2.49498414e-02	3.97747897e-01	-3.72798056e-01	-7.70545953e-01	-9.00332031e-02	-6.80512750e-01	2.95239773e-01	3.85272977e-01	1.24749207e-02	1.60311943e-19	1.24749207e-02	-1.24749207e-02
1068            	2.49349254e-02	3.97785723e-01	-3.72850798e-01	-7.70636521e-01	-9.00673611e-02	-6.80569160e-01	2.95250899e-01	3.85318260e-01	1.24674627e-02	1.60312087e-19	1.24674627e-02	-1.24674627e-02
1069            	2.49197424e-02	3.97822976e-01	-3.72903234e-01	-7.70726210e-01	-9.01016636e-02	-6.80624547e-01	2.95261442e-01	3.85363105e-01	1.24598712e-02	1.60312233e-19	1.24598712e-02	-1.24598712e-02
1070            	2.49047521e-02	3.97859803e-01	-3.72955051e-01	-7.70814855e-01	-9.01356052e-02	-6.80679249e-01	2.95271822e-01	3.85407427e-01	1.24523760e-02	1.60312362e-19	1.24523760e-02	-1.24523760e-02
1071            	2.48895677e-02	3.97896417e-01	-3.73006849e-01	-7.70903266e-01	-9.01695690e-02	-6.80733697e-01	2.95282064e-01	3.85451633e-01	1.24447839e-02	1.60312520e-19	1.24447839e-02	-1.24447839e-02
1072            	2.48746215e-02	3.97933048e-01	-3.73058427e-01	-7.70991475e-01	-9.02033220e-02	-6.80788153e-01	2.95292416e-01	3.85495738e-01	1.24373107e-02	1.60312658e-19	1.24373107e-02	-1.24373107e-02
1073            	2.48597624e-02	3.97970016e-01	-3.73110254e-01	-7.71080270e-01	-9.02371064e-02	-6.80843163e-01	2.95303029e-01	3.85540135e-01	1.24298812e-02	1.60312796e-19	1.24298812e-02	-1.24298812e-02
1074            	2.48449655e-02	3.98007108e-01	-3.73162143e-01	-7.71169251e-01	-9.02708299e-02	-6.80898421e-01	2.95313796e-01	3.85584625e-01	1.24224827e-02	1.60312935e-19	1.24224827e-02	-1.24224827e-02
1075            	2.48301826e-02	3.98044159e-01	-3.73213977e-01	-7.71258136e-01	-9.03044814e-02	-6.80953655e-01	2.95324587e-01	3.85629068e-01	1.24150913e-02	1.60313074e-19	1.24150913e-02	-1.24150913e-02
1076            	2.48157422e-02	3.98079542e-01	-3.73263800e-01	-7.71343342e-01	-9.03371557e-02	-6.81006186e-01	2.95334515e-01	3.85671671e-01	1.24078711e-02	1.60313204e-19	1.24078711e-02	-1.24078711e-02
1077            	2.48009738e-02	3.98116426e-01	-3.73315452e-01	-7.71431877e-01	-9.03708378e-02	-6.81061039e-01	2.95345101e-01	3.85715939e-01	1.24004869e-02	1.60313343e-19	1.24004869e-02	-1.24004869e-02
1078            	2.47859730e-02	3.98152953e-01	-3.73366980e-01	-7.71519932e-01	-9.04047071e-02	-6.81115225e-01	2.95355259e-01	3.85759966e-01	1.23929865e-02	1.60313484e-19	1.23929865e-02	-1.23929865e-02
1079            	2.47709810e-02	3.98189399e-01	-3.73418418e-01	-7.71607816e-01	-9.04384824e-02	-6.81169334e-01	2.95365426e-01	3.85803908e-01	1.23854905e-02	1.60313611e-19	1.23854905e-02	-1.23854905e-02
1080            	2.47560129e-02	3.98224079e-01	-3.73468066e-01	-7.71692146e-01	-9.04716828e-02	-6.81220463e-01	2.95374390e-01	3.85846073e-01	1.23780065e-02	1.60313760e-19	1.23780065e-02	-1.23780065e-02
1081            	2.47416785e-02	3.98258205e-01	-3.73516527e-01	-7.71774732e-01	-9.05039235e-02	-6.81270809e-01	2.95383443e-01	3.85887366e-01	1.23708392e-02	1.60313882e-19	1.23708392e-02	-1.23708392e-02
1082            	2.47274494e-02	3.98293888e-01	-3.73566439e-01	-7.71860327e-01	-9.05364974e-02	-6.81323829e-01	2.95393666e-01	3.85930163e-01	1.23637247e-02	1.60314009e-19	1.23637247e-02	-1.23637247e-02
1083            	2.47128538e-02	3.98331380e-01	-3.73618526e-01	-7.71949906e-01	-9.05701360e-02	-6.81379770e-01	2.95404817e-01	3.85974953e-01	1.23564269e-02	1.60314150e-19	1.23564269e-02	-1.23564269e-02
1084            	2.46981457e-02	3.98367833e-01	-3.73669688e-01	-7.72037521e-01	-9.06037300e-02	-6.81433791e-01	2.95415031e-01	3.86018761e-01	1.23490728e-02	1.60314289e-19	1.23490728e-02	-1.23490728e-02
1085            	2.46831015e-02	3.98403797e-01	-3.73720695e-01	-7.72124492e-01	-9.06373481e-02	-6.81487144e-01	2.95424898e-01	3.86062246e-01	1.23415508e-02	1.60314428e-19	1.23415508e-02	-1.23415508e-02
1086            	2.46684700e-02	3.98437950e-01	-3.73769480e-01	-7.72207429e-01	-9.06698390e-02	-6.81537590e-01	2.95433876e-01	3.86103715e-01	1.23342350e-02	1.60314555e-19	1.23342350e-02	-1.23342350e-02
1087            	2.46540279e-02	3.98472018e-01	-3.73817990e-01	-7.72290007e-01	-9.07022064e-02	-6.81587801e-01	2.95442797e-01	3.86145004e-01	1.23270139e-02	1.60314677e-19	1.23270139e-02	-1.23270139e-02
1088            	2.46399577e-02	3.98505949e-01	-3.73865991e-01	-7.72371940e-01	-9.07341623e-02	-6.81637778e-01	2.95451808e-01	3.86185970e-01	1.23199789e-02	1.60314797e-19	1.23199789e-02	-1.23199789e-02
1089            	2.46259269e-02	3.98540960e-01	-3.73915033e-01	-7.72455993e-01	-9.07665153e-02	-6.81689477e-01	2.95461481e-01	3.86227996e-01	1.23129634e-02	1.60314910e-19	1.23129634e-02	-1.23129634e-02
1090            	2.46112775e-02	3.98576354e-01	-3.73965076e-01	-7.72541430e-01	-9.07996215e-02	-6.81741809e-01	2.95471094e-01	3.86270715e-01	1.23056387e-02	1.60315063e-19	1.23056387e-02	-1.23056387e-02
1091            	2.45968909e-02	3.98610820e-01	-3.74013929e-01	-7.72624749e-01	-9.08320565e-02	-6.81792692e-01	2.95480318e-01	3.86312374e-01	1.22984455e-02	1.60315188e-19	1.22984455e-02	-1.22984455e-02
1092            	2.45825194e-02	3.98645926e-01	-3.74063406e-01	-7.72709332e-01	-9.08647775e-02	-6.81844554e-01	2.95489888e-01	3.86354666e-01	1.22912597e-02	1.60315314e-19	1.22912597e-02	-1.22912597e-02
1093            	2.45682288e-02	3.98681071e-01	-3.74112842e-01	-7.72793913e-01	-9.08974895e-02	-6.81896423e-01	2.95499467e-01	3.86396956e-01	1.22841144e-02	1.60315440e-19	1.22841144e-02	-1.22841144e-02
1094            	2.45543466e-02	3.98713755e-01	-3.74159409e-01	-7.72873164e-01	-9.09285903e-02	-6.81944573e-01	2.95507992e-01	3.86436582e-01	1.22771733e-02	1.60315552e-19	1.22771733e-02	-1.22771733e-02
1095            	2.45398797e-02	3.98748882e-01	-3.74209003e-01	-7.72957885e-01	-9.09612886e-02	-6.81996596e-01	2.95517654e-01	3.86478942e-01	1.22699399e-02	1.60315679e-19	1.22699399e-02	-1.22699399e-02
1096            	2.45258978e-02	3.98783083e-01	-3.74257185e-01	-7.73040267e-01	-9.09931693e-02	-6.82047098e-01	2.95526964e-01	3.86520134e-01	1.22629489e-02	1.60315800e-19	1.22629489e-02	-1.22629489e-02
1097            	2.45119043e-02	3.98817027e-01	-3.74305123e-01	-7.73122150e-01	-9.10251471e-02	-6.82097003e-01	2.95535928e-01	3.86561075e-01	1.22559521e-02	1.60315918e-19	1.22559521e-02	-1.22559521e-02
1098            	2.44978009e-02	3.98850515e-01	-3.74352714e-01	-7.73203229e-01	-9.10570575e-02	-6.82146171e-01	2.95544557e-01	3.86601614e-01	1.22489004e-02	1.60316040e-19	1.22489004e-02	-1.22489004e-02
1099            	2.44836843e-02	3.98884146e-01	-3.74400461e-01	-7.73284607e-01	-9.10890478e-02	-6.82195559e-01	2.95553256e-01	3.86642304e-01	1.22418421e-02	1.60316148e-19	1.22418421e-02	-1.22418421e-02
1100            	2.44691770e-02	3.98917524e-01	-3.74448347e-01	-7.73365871e-01	-9.11213470e-02	-6.82244524e-01	2.95561589e-01	3.86682936e-01	1.22345885e-02	1.60316290e-19	1.22345885e-02	-1.22345885e-02
1101            	2.44547482e-02	3.98950904e-01	-3.74496156e-01	-7.73447061e-01	-9.11535222e-02	-6.82293538e-01	2.95570008e-01	3.86723530e-01	1.22273741e-02	1.60316412e-19	1.22273741e-02	-1.22273741e-02
1102            	2.44407160e-02	3.98983735e-01	-3.74543019e-01	-7.73526754e-01	-9.11850108e-02	-6.82341743e-01	2.95578366e-01	3.86763377e-01	1.22203580e-02	1.60316525e-19	1.22203580e-02	-1.22203580e-02
1103            	2.44270236e-02	3.99015984e-01	-3.74588961e-01	-7.73604945e-01	-9.12159511e-02	-6.82388994e-01	2.95586521e-01	3.86802472e-01	1.22135118e-02	1.60316633e-19	1.22135118e-02	-1.22135118e-02
1104            	2.44133143e-02	3.99048490e-01	-3.74635176e-01	-7.73683665e-01	-9.12471010e-02	-6.82436564e-01	2.95594732e-01	3.86841833e-01	1.22066572e-02	1.60316747e-19	1.22066572e-02	-1.22066572e-02
1105            	2.43991898e-02	3.99082083e-01	-3.74682893e-01	-7.73764976e-01	-9.12791605e-02	-6.82485816e-01	2.95603328e-01	3.86882488e-01	1.21995949e-02	1.60316871e-19	1.21995949e-02	-1.21995949e-02
1106            	2.43850306e-02	3.99114729e-01	-3.74729698e-01	-7.73844427e-01	-9.13108582e-02	-6.82533569e-01	2.95611355e-01	3.86922213e-01	1.21925153e-02	1.60316989e-19	1.21925153e-02	-1.21925153e-02
1107            	2.43713614e-02	3.99146445e-01	-3.74775083e-01	-7.73921528e-01	-9.13416914e-02	-6.82579837e-01	2.95619073e-01	3.86960764e-01	1.21856807e-02	1.60317098e-19	1.21856807e-02	-1.21856807e-02
1108            	2.43572712e-02	3.99178500e-01	-3.74821228e-01	-7.73999728e-01	-9.13729451e-02	-6.82626783e-01	2.95626919e-01	3.86999864e-01	1.21786356e-02	1.60317206e-19	1.21786356e-02	-1.21786356e-02
1109            	2.43435834e-02	3.99210541e-01	-3.74866957e-01	-7.74077498e-01	-9.14039916e-02	-6.82673506e-01	2.95634757e-01	3.87038749e-01	1.21717917e-02	1.60317303e-19	1.21717917e-02	-1.21717917e-02
1110            	2.43296928e-02	3.99243026e-01	-3.74913333e-01	-7.74156359e-01	-9.14354562e-02	-6.82720903e-01	2.95642723e-01	3.87078180e-01	1.21648464e-02	1.60317436e-19	1.21648464e-02	-1.21648464e-02
1111            	2.43158166e-02	3.99276255e-01	-3.74960439e-01	-7.74236694e-01	-9.14669016e-02	-6.82769793e-01	2.95651446e-01	3.87118347e-01	1.21579083e-02	1.60317556e-19	1.21579083e-02	-1.21579083e-02
1112            	2.43014838e-02	3.99309301e-01	-3.75007817e-01	-7.74317117e-01	-9.14989464e-02	-6.82818171e-01	2.95659612e-01	3.87158559e-01	1.21507419e-02	1.60317674e-19	1.21507419e-02	-1.21507419e-02
1113            	2.42878185e-02	3.99340140e-01	-3.75052321e-01	-7.74392461e-01	-9.15294262e-02	-6.82863035e-01	2.95666804e-01	3.87196231e-01	1.21439093e-02	1.60317781e-19	1.21439093e-02	-1.21439093e-02
1114            	2.42741866e-02	3.99370820e-01	-3.75096633e-01	-7.74467453e-01	-9.15599259e-02	-6.82907527e-01	2.95673801e-01	3.87233727e-01	1.21370933e-02	1.60317887e-19	1.21370933e-02	-1.21370933e-02
1115            	2.42611474e-02	3.99400709e-01	-3.75139562e-01	-7.74540272e-01	-9.15893847e-02	-6.82950887e-01	2.95680751e-01	3.87270136e-01	1.21305737e-02	1.60317985e-19	1.21305737e-02	-1.21305737e-02
1116            	2.42472156e-02	3.99432830e-01	-3.75185614e-01	-7.74618444e-01	-9.16208681e-02	-6.82997576e-01	2.95688354e-01	3.87309222e-01	1.21236078e-02	1.60318101e-19	1.21236078e-02	-1.21236078e-02
1117            	2.42334520e-02	3.99464070e-01	-3.75230617e-01	-7.74694687e-01	-9.16516240e-02	-6.83043063e-01	2.95695719e-01	3.87347344e-01	1.21167260e-02	1.60318217e-19	1.21167260e-02	-1.21167260e-02
1118            	2.42192451e-02	3.99496197e-01	-3.75276952e-01	-7.74773149e-01	-9.16831712e-02	-6.83089978e-01	2.95703403e-01	3.87386574e-01	1.21096225e-02	1.60318333e-19	1.21096225e-02	-1.21096225e-02
1119            	2.42060793e-02	3.99527045e-01	-3.75320966e-01	-7.74848011e-01	-9.17130811e-02	-6.83134930e-01	2.95710924e-01	3.87424005e-01	1.21030397e-02	1.60318414e-19	1.21030397e-02	-1.21030397e-02
1120            	2.41921601e-02	3.99559203e-01	-3.75367043e-01	-7.74926245e-01	-9.17442204e-02	-6.83182025e-01	2.95718902e-01	3.87463123e-01	1.20960800e-02	1.60318535e-19	1.20960800e-02	-1.20960800e-02
1121            	2.41785787e-02	3.99590222e-01	-3.75411643e-01	-7.75001865e-01	-9.17751477e-02	-6.83226717e-01	2.95725785e-01	3.87500932e-01	1.20892894e-02	1.60318647e-19	1.20892894e-02	-1.20892894e-02
1122            	2.41656246e-02	3.99619247e-01	-3.75453622e-01	-7.75072869e-01	-9.18046799e-02	-6.83268189e-01	2.95731754e-01	3.87536434e-01	1.20828123e-02	1.60318743e-19	1.20828123e-02	-1.20828123e-02
1123            	2.41512844e-02	3.99650927e-01	-3.75499643e-01	-7.75150570e-01	-9.18362723e-02	-6.83314298e-01	2.95739013e-01	3.87575285e-01	1.20756422e-02	1.60318856e-19	1.20756422e-02	-1.20756422e-02
1124            	2.41379296e-02	3.99680918e-01	-3.75542988e-01	-7.75223906e-01	-9.18658986e-02	-6.83358007e-01	2.95746054e-01	3.87611953e-01	1.20689648e-02	1.60318957e-19	1.20689648e-02	-1.20689648e-02
1125            	2.41249635e-02	3.99711015e-01	-3.75586051e-01	-7.75297066e-01	-9.18953436e-02	-6.83401722e-01	2.95753189e-01	3.87648533e-01	1.20624817e-02	1.60319052e-19	1.20624817e-02	-1.20624817e-02
1126            	2.41118534e-02	3.99741383e-01	-3.75629529e-01	-7.75370912e-01	-9.19252880e-02	-6.83445624e-01	2.95760168e-01	3.87685456e-01	1.20559267e-02	1.60319153e-19	1.20559267e-02	-1.20559267e-02
1127            	2.40984543e-02	3.99771401e-01	-3.75672947e-01	-7.75444349e-01	-9.19555708e-02	-6.83488778e-01	2.95766603e-01	3.87722174e-01	1.20492271e-02	1.60319258e-19	1.20492271e-02	-1.20492271e-02
1128            	2.40848024e-02	3.99801012e-01	-3.75716209e-01	-7.75517221e-01	-9.19860338e-02	-6.83531188e-01	2.95772577e-01	3.87758611e-01	1.20424012e-02	1.60319363e-19	1.20424012e-02	-1.20424012e-02
1129            	2.40710125e-02	3.99830480e-01	-3.75759467e-01	-7.75589947e-01	-9.20164883e-02	-6.83573458e-01	2.95778485e-01	3.87794973e-01	1.20355062e-02	1.60319466e-19	1.20355062e-02	-1.20355062e-02
1130            	2.40577966e-02	3.99859069e-01	-3.75801272e-01	-7.75660341e-01	-9.20459568e-02	-6.83614384e-01	2.95784214e-01	3.87830171e-01	1.20288983e-02	1.60319540e-19	1.20288983e-02	-1.20288983e-02
1131            	2.40442783e-02	3.99888632e-01	-3.75844353e-01	-7.75732985e-01	-9.20761417e-02	-6.83656844e-01	2.95790351e-01	3.87866493e-01	1.20221392e-02	1.60319655e-19	1.20221392e-02	-1.20221392e-02
1132            	2.40310435e-02	3.99917540e-01	-3.75886496e-01	-7.75804036e-01	-9.21057932e-02	-6.83698243e-01	2.95796225e-01	3.87902018e-01	1.20155218e-02	1.60319751e-19	1.20155218e-02	-1.20155218e-02
1133            	2.40175925e-02	3.99946587e-01	-3.75928995e-01	-7.75875582e-01	-9.21358296e-02	-6.83739752e-01	2.95801961e-01	3.87937791e-01	1.20087962e-02	1.60319849e-19	1.20087962e-02	-1.20087962e-02
1134            	2.40043422e-02	3.99973894e-01	-3.75969552e-01	-7.75943446e-01	-9.21647446e-02	-6.83778702e-01	2.95806978e-01	3.87971723e-01	1.20021711e-02	1.60319936e-19	1.20021711e-02	-1.20021711e-02
1135            	2.39910603e-02	4.00002052e-01	-3.76010992e-01	-7.76013044e-01	-9.21941372e-02	-6.83818907e-01	2.95812385e-01	3.88006522e-01	1.19955301e-02	1.60320026e-19	1.19955301e-02	-1.19955301e-02
1136            	2.39777275e-02	4.00030014e-01	-3.76052287e-01	-7.76082301e-01	-9.22235012e-02	-6.83858800e-01	2.95817649e-01	3.88041151e-01	1.19888637e-02	1.60320118e-19	1.19888637e-02	-1.19888637e-02
1137            	2.39650489e-02	4.00056676e-01	-3.76091627e-01	-7.76148303e-01	-9.22517874e-02	-6.83896516e-01	2.95822364e-01	3.88074151e-01	1.19825244e-02	1.60320202e-19	1.19825244e-02	-1.19825244e-02
1138            	2.39516952e-02	4.00086126e-01	-3.76134431e-01	-7.76220558e-01	-9.22819473e-02	-6.83938610e-01	2.95828332e-01	3.88110279e-01	1.19758476e-02	1.60320303e-19	1.19758476e-02	-1.19758476e-02
1139            	2.39377445e-02	4.00115732e-01	-3.76177988e-01	-7.76293720e-01	-9.23129714e-02	-6.83980748e-01	2.95833888e-01	3.88146860e-01	1.19688722e-02	1.60320413e-19	1.19688722e-02	-1.19688722e-02
1140            	2.39244926e-02	4.00142183e-01	-3.76217690e-01	-7.76359872e-01	-9.23417440e-02	-6.84018128e-01	2.95838192e-01	3.88179936e-01	1.19622463e-02	1.60320501e-19	1.19622463e-02	-1.19622463e-02
1141            	2.39108346e-02	4.00169080e-01	-3.76258245e-01	-7.76427325e-01	-9.23714789e-02	-6.84055846e-01	2.95842184e-01	3.88213663e-01	1.19554173e-02	1.60320572e-19	1.19554173e-02	-1.19554173e-02
1142            	2.38976363e-02	4.00195826e-01	-3.76298190e-01	-7.76494015e-01	-9.24003500e-02	-6.84093665e-01	2.95846658e-01	3.88247008e-01	1.19488181e-02	1.60320673e-19	1.19488181e-02	-1.19488181e-02
1143            	2.38848029e-02	4.00223514e-01	-3.76338711e-01	-7.76562225e-01	-9.24291452e-02	-6.84133080e-01	2.95851968e-01	3.88281113e-01	1.19424015e-02	1.60320758e-19	1.19424015e-02	-1.19424015e-02
1144            	2.38718852e-02	4.00251004e-01	-3.76379118e-01	-7.76630122e-01	-9.24580179e-02	-6.84172104e-01	2.95857043e-01	3.88315061e-01	1.19359426e-02	1.60320844e-19	1.19359426e-02	-1.19359426e-02