# y+ ()         
# Time          	patch           	min             	max             	average         
46              	Floor	6.68270920e-01	1.02119453e+01	9.01730483e+00
46              	Airfoil	1.20602011e-01	2.39070558e+00	8.98851336e-01
